-0.5 	-1 	0.5 	54.7468
-0.484375 	-1 	0.5 	56.3955
-0.46875 	-1 	0.5 	58.2126
-0.453125 	-1 	0.5 	59.9385
-0.4375 	-1 	0.5 	60.9956
-0.421875 	-1 	0.5 	63.238
-0.40625 	-1 	0.5 	65.2633
-0.390625 	-1 	0.5 	66.8246
-0.375 	-1 	0.5 	68.3327
-0.359375 	-1 	0.5 	69.8069
-0.34375 	-1 	0.5 	71.4775
-0.328125 	-1 	0.5 	72.7188
-0.3125 	-1 	0.5 	74.1655
-0.296875 	-1 	0.5 	76.4222
-0.28125 	-1 	0.5 	78.4304
-0.265625 	-1 	0.5 	79.7903
-0.25 	-1 	0.5 	81.7285
-0.234375 	-1 	0.5 	83.1542
-0.21875 	-1 	0.5 	84.4409
-0.203125 	-1 	0.5 	86.3499
-0.1875 	-1 	0.5 	87.6784
-0.171875 	-1 	0.5 	89.3217
-0.15625 	-1 	0.5 	90.9608
-0.140625 	-1 	0.5 	92.4444
-0.125 	-1 	0.5 	93.8131
-0.109375 	-1 	0.5 	95.174
-0.09375 	-1 	0.5 	96.5458
-0.078125 	-1 	0.5 	97.7075
-0.0625 	-1 	0.5 	98.9832
-0.046875 	-1 	0.5 	100.252
-0.03125 	-1 	0.5 	101.94
-0.015625 	-1 	0.5 	103.546
0 	-1 	0.5 	104.632
0.015625 	-1 	0.5 	105.72
0.03125 	-1 	0.5 	106.672
0.046875 	-1 	0.5 	107.95
0.0625 	-1 	0.5 	108.774
0.078125 	-1 	0.5 	109.668
0.09375 	-1 	0.5 	110.674
0.109375 	-1 	0.5 	111.512
0.125 	-1 	0.5 	112.626
0.140625 	-1 	0.5 	113.242
0.15625 	-1 	0.5 	113.801
0.171875 	-1 	0.5 	114.382
0.1875 	-1 	0.5 	115.328
0.203125 	-1 	0.5 	116.171
0.21875 	-1 	0.5 	116.806
0.234375 	-1 	0.5 	117.096
0.25 	-1 	0.5 	116.228
0.265625 	-1 	0.5 	117.009
0.28125 	-1 	0.5 	117.449
0.296875 	-1 	0.5 	118.037
0.3125 	-1 	0.5 	119.534
0.328125 	-1 	0.5 	117.745
0.34375 	-1 	0.5 	118.094
0.359375 	-1 	0.5 	117.78
0.375 	-1 	0.5 	118.745
0.390625 	-1 	0.5 	118.441
0.40625 	-1 	0.5 	117.893
0.421875 	-1 	0.5 	117.587
0.4375 	-1 	0.5 	117.239
0.453125 	-1 	0.5 	117.139
0.46875 	-1 	0.5 	116.741
0.484375 	-1 	0.5 	116.378
0.5 	-1 	0.5 	116.041
0.515625 	-1 	0.5 	115.415
0.53125 	-1 	0.5 	114.691
0.546875 	-1 	0.5 	113.947
0.5625 	-1 	0.5 	113.354
0.578125 	-1 	0.5 	112.522
0.59375 	-1 	0.5 	111.988
0.609375 	-1 	0.5 	110.667
0.625 	-1 	0.5 	110.365
0.640625 	-1 	0.5 	109.738
0.65625 	-1 	0.5 	108.945
0.671875 	-1 	0.5 	107.898
0.6875 	-1 	0.5 	106.852
0.703125 	-1 	0.5 	105.83
0.71875 	-1 	0.5 	104.836
0.734375 	-1 	0.5 	103.842
0.75 	-1 	0.5 	103.004
0.765625 	-1 	0.5 	101.794
0.78125 	-1 	0.5 	100.24
0.796875 	-1 	0.5 	98.9721
0.8125 	-1 	0.5 	98.0884
0.828125 	-1 	0.5 	96.7579
0.84375 	-1 	0.5 	95.5149
0.859375 	-1 	0.5 	94.2287
0.875 	-1 	0.5 	92.865
0.890625 	-1 	0.5 	91.5353
0.90625 	-1 	0.5 	90.3532
0.921875 	-1 	0.5 	89.2332
0.9375 	-1 	0.5 	87.7845
0.953125 	-1 	0.5 	86.6043
0.96875 	-1 	0.5 	85.1777
0.984375 	-1 	0.5 	83.9984
1 	-1 	0.5 	82.9808
1.01562 	-1 	0.5 	81.4418
1.03125 	-1 	0.5 	80.2662
1.04688 	-1 	0.5 	78.8521
1.0625 	-1 	0.5 	77.3296
1.07812 	-1 	0.5 	75.8671
1.09375 	-1 	0.5 	74.5176
1.10938 	-1 	0.5 	73.1812
1.125 	-1 	0.5 	71.853
1.14062 	-1 	0.5 	70.3169
1.15625 	-1 	0.5 	68.7894
1.17188 	-1 	0.5 	67.5835
1.1875 	-1 	0.5 	66.089
1.20312 	-1 	0.5 	64.9521
1.21875 	-1 	0.5 	63.724
1.23438 	-1 	0.5 	62.4716
1.25 	-1 	0.5 	61.1076
1.26562 	-1 	0.5 	59.7993
1.28125 	-1 	0.5 	58.1621
1.29688 	-1 	0.5 	56.8548
1.3125 	-1 	0.5 	55.5478
1.32812 	-1 	0.5 	54.7
1.34375 	-1 	0.5 	53.6748
1.35938 	-1 	0.5 	52.1378
1.375 	-1 	0.5 	50.9402
1.39062 	-1 	0.5 	49.6454
1.40625 	-1 	0.5 	48.4931
1.42188 	-1 	0.5 	47.2321
1.4375 	-1 	0.5 	46.0362
1.45312 	-1 	0.5 	44.9295
1.46875 	-1 	0.5 	43.8779
1.48438 	-1 	0.5 	42.9831
-0.5 	-0.984375 	0.5 	55.0122
-0.484375 	-0.984375 	0.5 	56.652
-0.46875 	-0.984375 	0.5 	58.4092
-0.453125 	-0.984375 	0.5 	60.1354
-0.4375 	-0.984375 	0.5 	61.5268
-0.421875 	-0.984375 	0.5 	63.7396
-0.40625 	-0.984375 	0.5 	65.6088
-0.390625 	-0.984375 	0.5 	67.2206
-0.375 	-0.984375 	0.5 	68.8667
-0.359375 	-0.984375 	0.5 	70.4621
-0.34375 	-0.984375 	0.5 	71.9363
-0.328125 	-0.984375 	0.5 	73.2702
-0.3125 	-0.984375 	0.5 	74.9746
-0.296875 	-0.984375 	0.5 	76.808
-0.28125 	-0.984375 	0.5 	79.0548
-0.265625 	-0.984375 	0.5 	80.7021
-0.25 	-0.984375 	0.5 	82.2997
-0.234375 	-0.984375 	0.5 	83.8973
-0.21875 	-0.984375 	0.5 	85.5281
-0.203125 	-0.984375 	0.5 	87.2216
-0.1875 	-0.984375 	0.5 	88.8829
-0.171875 	-0.984375 	0.5 	90.5252
-0.15625 	-0.984375 	0.5 	92.1662
-0.140625 	-0.984375 	0.5 	93.7268
-0.125 	-0.984375 	0.5 	95.0924
-0.109375 	-0.984375 	0.5 	96.4514
-0.09375 	-0.984375 	0.5 	97.8553
-0.078125 	-0.984375 	0.5 	99.0716
-0.0625 	-0.984375 	0.5 	100.379
-0.046875 	-0.984375 	0.5 	101.932
-0.03125 	-0.984375 	0.5 	103.523
-0.015625 	-0.984375 	0.5 	105.029
0 	-0.984375 	0.5 	106.413
0.015625 	-0.984375 	0.5 	107.594
0.03125 	-0.984375 	0.5 	108.53
0.046875 	-0.984375 	0.5 	109.488
0.0625 	-0.984375 	0.5 	110.409
0.078125 	-0.984375 	0.5 	111.328
0.09375 	-0.984375 	0.5 	112.24
0.109375 	-0.984375 	0.5 	113.298
0.125 	-0.984375 	0.5 	114.496
0.140625 	-0.984375 	0.5 	115.492
0.15625 	-0.984375 	0.5 	116.023
0.171875 	-0.984375 	0.5 	116.565
0.1875 	-0.984375 	0.5 	117.106
0.203125 	-0.984375 	0.5 	117.677
0.21875 	-0.984375 	0.5 	118.25
0.234375 	-0.984375 	0.5 	118.822
0.25 	-0.984375 	0.5 	119.141
0.265625 	-0.984375 	0.5 	119.397
0.28125 	-0.984375 	0.5 	119.764
0.296875 	-0.984375 	0.5 	119.764
0.3125 	-0.984375 	0.5 	120.117
0.328125 	-0.984375 	0.5 	120.077
0.34375 	-0.984375 	0.5 	119.618
0.359375 	-0.984375 	0.5 	120.089
0.375 	-0.984375 	0.5 	120.071
0.390625 	-0.984375 	0.5 	120.346
0.40625 	-0.984375 	0.5 	119.722
0.421875 	-0.984375 	0.5 	119.55
0.4375 	-0.984375 	0.5 	119.248
0.453125 	-0.984375 	0.5 	119.074
0.46875 	-0.984375 	0.5 	118.781
0.484375 	-0.984375 	0.5 	118.407
0.5 	-0.984375 	0.5 	117.95
0.515625 	-0.984375 	0.5 	117.278
0.53125 	-0.984375 	0.5 	116.701
0.546875 	-0.984375 	0.5 	115.961
0.5625 	-0.984375 	0.5 	115.624
0.578125 	-0.984375 	0.5 	114.43
0.59375 	-0.984375 	0.5 	113.597
0.609375 	-0.984375 	0.5 	112.856
0.625 	-0.984375 	0.5 	112.072
0.640625 	-0.984375 	0.5 	111.346
0.65625 	-0.984375 	0.5 	110.56
0.671875 	-0.984375 	0.5 	109.768
0.6875 	-0.984375 	0.5 	108.524
0.703125 	-0.984375 	0.5 	107.381
0.71875 	-0.984375 	0.5 	105.879
0.734375 	-0.984375 	0.5 	105.112
0.75 	-0.984375 	0.5 	104.262
0.765625 	-0.984375 	0.5 	103.056
0.78125 	-0.984375 	0.5 	101.923
0.796875 	-0.984375 	0.5 	100.392
0.8125 	-0.984375 	0.5 	99.2812
0.828125 	-0.984375 	0.5 	98.1276
0.84375 	-0.984375 	0.5 	96.6602
0.859375 	-0.984375 	0.5 	95.3935
0.875 	-0.984375 	0.5 	93.9391
0.890625 	-0.984375 	0.5 	92.6513
0.90625 	-0.984375 	0.5 	91.3883
0.921875 	-0.984375 	0.5 	90.2833
0.9375 	-0.984375 	0.5 	88.8495
0.953125 	-0.984375 	0.5 	87.4742
0.96875 	-0.984375 	0.5 	85.9564
0.984375 	-0.984375 	0.5 	84.6072
1 	-0.984375 	0.5 	83.5331
1.01562 	-0.984375 	0.5 	82.1269
1.03125 	-0.984375 	0.5 	80.773
1.04688 	-0.984375 	0.5 	79.1669
1.0625 	-0.984375 	0.5 	77.6684
1.07812 	-0.984375 	0.5 	76.0302
1.09375 	-0.984375 	0.5 	75.0339
1.10938 	-0.984375 	0.5 	73.6461
1.125 	-0.984375 	0.5 	72.4486
1.14062 	-0.984375 	0.5 	71.0179
1.15625 	-0.984375 	0.5 	69.3253
1.17188 	-0.984375 	0.5 	67.9883
1.1875 	-0.984375 	0.5 	66.3707
1.20312 	-0.984375 	0.5 	65.1652
1.21875 	-0.984375 	0.5 	64.0589
1.23438 	-0.984375 	0.5 	62.7837
1.25 	-0.984375 	0.5 	61.6142
1.26562 	-0.984375 	0.5 	60.3415
1.28125 	-0.984375 	0.5 	58.5985
1.29688 	-0.984375 	0.5 	57.2403
1.3125 	-0.984375 	0.5 	55.6274
1.32812 	-0.984375 	0.5 	54.6118
1.34375 	-0.984375 	0.5 	53.5607
1.35938 	-0.984375 	0.5 	52.3721
1.375 	-0.984375 	0.5 	51.0095
1.39062 	-0.984375 	0.5 	49.9107
1.40625 	-0.984375 	0.5 	48.6103
1.42188 	-0.984375 	0.5 	47.2896
1.4375 	-0.984375 	0.5 	46.0925
1.45312 	-0.984375 	0.5 	45.2122
1.46875 	-0.984375 	0.5 	44.3319
1.48438 	-0.984375 	0.5 	43.0013
-0.5 	-0.96875 	0.5 	55.3491
-0.484375 	-0.96875 	0.5 	57.1021
-0.46875 	-0.96875 	0.5 	58.7614
-0.453125 	-0.96875 	0.5 	60.4413
-0.4375 	-0.96875 	0.5 	62.0932
-0.421875 	-0.96875 	0.5 	64.0083
-0.40625 	-0.96875 	0.5 	65.9215
-0.390625 	-0.96875 	0.5 	67.5627
-0.375 	-0.96875 	0.5 	69.2039
-0.359375 	-0.96875 	0.5 	70.9675
-0.34375 	-0.96875 	0.5 	72.7251
-0.328125 	-0.96875 	0.5 	73.629
-0.3125 	-0.96875 	0.5 	75.2895
-0.296875 	-0.96875 	0.5 	77.2493
-0.28125 	-0.96875 	0.5 	79.9446
-0.265625 	-0.96875 	0.5 	81.579
-0.25 	-0.96875 	0.5 	83.1643
-0.234375 	-0.96875 	0.5 	84.8834
-0.21875 	-0.96875 	0.5 	86.6479
-0.203125 	-0.96875 	0.5 	88.3528
-0.1875 	-0.96875 	0.5 	89.8874
-0.171875 	-0.96875 	0.5 	91.5958
-0.15625 	-0.96875 	0.5 	93.3298
-0.140625 	-0.96875 	0.5 	95.0084
-0.125 	-0.96875 	0.5 	96.3841
-0.109375 	-0.96875 	0.5 	97.7723
-0.09375 	-0.96875 	0.5 	99.1605
-0.078125 	-0.96875 	0.5 	100.529
-0.0625 	-0.96875 	0.5 	102.027
-0.046875 	-0.96875 	0.5 	103.552
-0.03125 	-0.96875 	0.5 	105.04
-0.015625 	-0.96875 	0.5 	106.512
0 	-0.96875 	0.5 	107.744
0.015625 	-0.96875 	0.5 	108.943
0.03125 	-0.96875 	0.5 	110.22
0.046875 	-0.96875 	0.5 	111.33
0.0625 	-0.96875 	0.5 	112.122
0.078125 	-0.96875 	0.5 	112.946
0.09375 	-0.96875 	0.5 	114.133
0.109375 	-0.96875 	0.5 	115.451
0.125 	-0.96875 	0.5 	116.605
0.140625 	-0.96875 	0.5 	117.384
0.15625 	-0.96875 	0.5 	117.952
0.171875 	-0.96875 	0.5 	118.497
0.1875 	-0.96875 	0.5 	119.142
0.203125 	-0.96875 	0.5 	119.386
0.21875 	-0.96875 	0.5 	119.564
0.234375 	-0.96875 	0.5 	120.651
0.25 	-0.96875 	0.5 	121.327
0.265625 	-0.96875 	0.5 	121.458
0.28125 	-0.96875 	0.5 	121.947
0.296875 	-0.96875 	0.5 	121.993
0.3125 	-0.96875 	0.5 	121.843
0.328125 	-0.96875 	0.5 	123.333
0.34375 	-0.96875 	0.5 	122.195
0.359375 	-0.96875 	0.5 	122.199
0.375 	-0.96875 	0.5 	122.029
0.390625 	-0.96875 	0.5 	122.208
0.40625 	-0.96875 	0.5 	121.6
0.421875 	-0.96875 	0.5 	121.37
0.4375 	-0.96875 	0.5 	121.275
0.453125 	-0.96875 	0.5 	121.016
0.46875 	-0.96875 	0.5 	120.795
0.484375 	-0.96875 	0.5 	120.45
0.5 	-0.96875 	0.5 	119.698
0.515625 	-0.96875 	0.5 	119.173
0.53125 	-0.96875 	0.5 	118.523
0.546875 	-0.96875 	0.5 	118.16
0.5625 	-0.96875 	0.5 	117.274
0.578125 	-0.96875 	0.5 	116.56
0.59375 	-0.96875 	0.5 	115.484
0.609375 	-0.96875 	0.5 	114.228
0.625 	-0.96875 	0.5 	113.599
0.640625 	-0.96875 	0.5 	113.083
0.65625 	-0.96875 	0.5 	112.074
0.671875 	-0.96875 	0.5 	111.253
0.6875 	-0.96875 	0.5 	110.047
0.703125 	-0.96875 	0.5 	108.938
0.71875 	-0.96875 	0.5 	107.85
0.734375 	-0.96875 	0.5 	106.664
0.75 	-0.96875 	0.5 	105.317
0.765625 	-0.96875 	0.5 	104.107
0.78125 	-0.96875 	0.5 	103.104
0.796875 	-0.96875 	0.5 	101.97
0.8125 	-0.96875 	0.5 	100.643
0.828125 	-0.96875 	0.5 	99.952
0.84375 	-0.96875 	0.5 	98.147
0.859375 	-0.96875 	0.5 	96.5582
0.875 	-0.96875 	0.5 	95.1536
0.890625 	-0.96875 	0.5 	93.7671
0.90625 	-0.96875 	0.5 	92.4377
0.921875 	-0.96875 	0.5 	91.1529
0.9375 	-0.96875 	0.5 	90.0167
0.953125 	-0.96875 	0.5 	88.4539
0.96875 	-0.96875 	0.5 	86.6735
0.984375 	-0.96875 	0.5 	85.2483
1 	-0.96875 	0.5 	83.78
1.01562 	-0.96875 	0.5 	82.6892
1.03125 	-0.96875 	0.5 	81.1524
1.04688 	-0.96875 	0.5 	79.4865
1.0625 	-0.96875 	0.5 	78.3456
1.07812 	-0.96875 	0.5 	76.3353
1.09375 	-0.96875 	0.5 	75.2984
1.10938 	-0.96875 	0.5 	74.204
1.125 	-0.96875 	0.5 	73.0684
1.14062 	-0.96875 	0.5 	71.6041
1.15625 	-0.96875 	0.5 	70.0274
1.17188 	-0.96875 	0.5 	68.4567
1.1875 	-0.96875 	0.5 	67.1771
1.20312 	-0.96875 	0.5 	65.7543
1.21875 	-0.96875 	0.5 	64.3589
1.23438 	-0.96875 	0.5 	63.0721
1.25 	-0.96875 	0.5 	61.6973
1.26562 	-0.96875 	0.5 	60.3426
1.28125 	-0.96875 	0.5 	59.0662
1.29688 	-0.96875 	0.5 	57.5296
1.3125 	-0.96875 	0.5 	56.2564
1.32812 	-0.96875 	0.5 	54.9514
1.34375 	-0.96875 	0.5 	53.5773
1.35938 	-0.96875 	0.5 	52.3591
1.375 	-0.96875 	0.5 	51.1017
1.39062 	-0.96875 	0.5 	49.8547
1.40625 	-0.96875 	0.5 	48.4475
1.42188 	-0.96875 	0.5 	47.2879
1.4375 	-0.96875 	0.5 	46.0325
1.45312 	-0.96875 	0.5 	44.7268
1.46875 	-0.96875 	0.5 	43.7287
1.48438 	-0.96875 	0.5 	42.8677
-0.5 	-0.953125 	0.5 	55.9566
-0.484375 	-0.953125 	0.5 	57.5815
-0.46875 	-0.953125 	0.5 	59.1388
-0.453125 	-0.953125 	0.5 	60.9029
-0.4375 	-0.953125 	0.5 	62.5377
-0.421875 	-0.953125 	0.5 	64.3205
-0.40625 	-0.953125 	0.5 	66.1454
-0.390625 	-0.953125 	0.5 	67.9192
-0.375 	-0.953125 	0.5 	69.9273
-0.359375 	-0.953125 	0.5 	72.0397
-0.34375 	-0.953125 	0.5 	73.6259
-0.328125 	-0.953125 	0.5 	75.0304
-0.3125 	-0.953125 	0.5 	76.1698
-0.296875 	-0.953125 	0.5 	78.9106
-0.28125 	-0.953125 	0.5 	80.9095
-0.265625 	-0.953125 	0.5 	83.3397
-0.25 	-0.953125 	0.5 	84.5894
-0.234375 	-0.953125 	0.5 	86.1794
-0.21875 	-0.953125 	0.5 	87.501
-0.203125 	-0.953125 	0.5 	89.1782
-0.1875 	-0.953125 	0.5 	91.2572
-0.171875 	-0.953125 	0.5 	92.8059
-0.15625 	-0.953125 	0.5 	94.5975
-0.140625 	-0.953125 	0.5 	96.4431
-0.125 	-0.953125 	0.5 	97.7128
-0.109375 	-0.953125 	0.5 	98.5816
-0.09375 	-0.953125 	0.5 	100.316
-0.078125 	-0.953125 	0.5 	101.928
-0.0625 	-0.953125 	0.5 	103.825
-0.046875 	-0.953125 	0.5 	105.382
-0.03125 	-0.953125 	0.5 	106.767
-0.015625 	-0.953125 	0.5 	108.174
0 	-0.953125 	0.5 	109.449
0.015625 	-0.953125 	0.5 	110.83
0.03125 	-0.953125 	0.5 	111.848
0.046875 	-0.953125 	0.5 	113.097
0.0625 	-0.953125 	0.5 	114.094
0.078125 	-0.953125 	0.5 	114.974
0.09375 	-0.953125 	0.5 	116.119
0.109375 	-0.953125 	0.5 	117.312
0.125 	-0.953125 	0.5 	118.392
0.140625 	-0.953125 	0.5 	119.269
0.15625 	-0.953125 	0.5 	119.968
0.171875 	-0.953125 	0.5 	120.597
0.1875 	-0.953125 	0.5 	121.058
0.203125 	-0.953125 	0.5 	120.887
0.21875 	-0.953125 	0.5 	121.864
0.234375 	-0.953125 	0.5 	122.506
0.25 	-0.953125 	0.5 	123.024
0.265625 	-0.953125 	0.5 	123.822
0.28125 	-0.953125 	0.5 	124.084
0.296875 	-0.953125 	0.5 	124.155
0.3125 	-0.953125 	0.5 	124.072
0.328125 	-0.953125 	0.5 	124.37
0.34375 	-0.953125 	0.5 	125.212
0.359375 	-0.953125 	0.5 	124.67
0.375 	-0.953125 	0.5 	124.301
0.390625 	-0.953125 	0.5 	124.13
0.40625 	-0.953125 	0.5 	124.042
0.421875 	-0.953125 	0.5 	123.937
0.4375 	-0.953125 	0.5 	123.435
0.453125 	-0.953125 	0.5 	123.086
0.46875 	-0.953125 	0.5 	122.871
0.484375 	-0.953125 	0.5 	122.45
0.5 	-0.953125 	0.5 	121.669
0.515625 	-0.953125 	0.5 	120.808
0.53125 	-0.953125 	0.5 	120.398
0.546875 	-0.953125 	0.5 	119.719
0.5625 	-0.953125 	0.5 	119.384
0.578125 	-0.953125 	0.5 	118.52
0.59375 	-0.953125 	0.5 	117
0.609375 	-0.953125 	0.5 	116.276
0.625 	-0.953125 	0.5 	115.461
0.640625 	-0.953125 	0.5 	114.689
0.65625 	-0.953125 	0.5 	113.711
0.671875 	-0.953125 	0.5 	112.75
0.6875 	-0.953125 	0.5 	111.575
0.703125 	-0.953125 	0.5 	110.53
0.71875 	-0.953125 	0.5 	109.256
0.734375 	-0.953125 	0.5 	108.148
0.75 	-0.953125 	0.5 	106.267
0.765625 	-0.953125 	0.5 	105.523
0.78125 	-0.953125 	0.5 	104.172
0.796875 	-0.953125 	0.5 	103.218
0.8125 	-0.953125 	0.5 	101.92
0.828125 	-0.953125 	0.5 	100.507
0.84375 	-0.953125 	0.5 	99.139
0.859375 	-0.953125 	0.5 	97.6712
0.875 	-0.953125 	0.5 	96.4918
0.890625 	-0.953125 	0.5 	95.102
0.90625 	-0.953125 	0.5 	93.2579
0.921875 	-0.953125 	0.5 	91.9213
0.9375 	-0.953125 	0.5 	90.7526
0.953125 	-0.953125 	0.5 	89.1945
0.96875 	-0.953125 	0.5 	87.4627
0.984375 	-0.953125 	0.5 	86.2409
1 	-0.953125 	0.5 	84.7139
1.01562 	-0.953125 	0.5 	83.8009
1.03125 	-0.953125 	0.5 	82.445
1.04688 	-0.953125 	0.5 	80.3358
1.0625 	-0.953125 	0.5 	78.9769
1.07812 	-0.953125 	0.5 	77.2343
1.09375 	-0.953125 	0.5 	76.0807
1.10938 	-0.953125 	0.5 	74.8156
1.125 	-0.953125 	0.5 	73.4868
1.14062 	-0.953125 	0.5 	72.1351
1.15625 	-0.953125 	0.5 	70.5203
1.17188 	-0.953125 	0.5 	68.8174
1.1875 	-0.953125 	0.5 	67.2074
1.20312 	-0.953125 	0.5 	65.8831
1.21875 	-0.953125 	0.5 	64.6238
1.23438 	-0.953125 	0.5 	63.2484
1.25 	-0.953125 	0.5 	61.9561
1.26562 	-0.953125 	0.5 	60.5952
1.28125 	-0.953125 	0.5 	59.1806
1.29688 	-0.953125 	0.5 	57.7637
1.3125 	-0.953125 	0.5 	56.3918
1.32812 	-0.953125 	0.5 	55.092
1.34375 	-0.953125 	0.5 	53.681
1.35938 	-0.953125 	0.5 	52.3619
1.375 	-0.953125 	0.5 	51.3088
1.39062 	-0.953125 	0.5 	49.9495
1.40625 	-0.953125 	0.5 	48.4681
1.42188 	-0.953125 	0.5 	47.1569
1.4375 	-0.953125 	0.5 	45.6882
1.45312 	-0.953125 	0.5 	44.6765
1.46875 	-0.953125 	0.5 	43.4344
1.48438 	-0.953125 	0.5 	42.2864
-0.5 	-0.9375 	0.5 	56.0609
-0.484375 	-0.9375 	0.5 	58.0469
-0.46875 	-0.9375 	0.5 	59.7568
-0.453125 	-0.9375 	0.5 	61.3095
-0.4375 	-0.9375 	0.5 	62.9821
-0.421875 	-0.9375 	0.5 	64.7861
-0.40625 	-0.9375 	0.5 	66.6311
-0.390625 	-0.9375 	0.5 	68.5693
-0.375 	-0.9375 	0.5 	70.712
-0.359375 	-0.9375 	0.5 	72.764
-0.34375 	-0.9375 	0.5 	74.3571
-0.328125 	-0.9375 	0.5 	75.8715
-0.3125 	-0.9375 	0.5 	77.4147
-0.296875 	-0.9375 	0.5 	80.5681
-0.28125 	-0.9375 	0.5 	81.7253
-0.265625 	-0.9375 	0.5 	84.7252
-0.25 	-0.9375 	0.5 	85.7269
-0.234375 	-0.9375 	0.5 	87.084
-0.21875 	-0.9375 	0.5 	88.9296
-0.203125 	-0.9375 	0.5 	90.8156
-0.1875 	-0.9375 	0.5 	92.4652
-0.171875 	-0.9375 	0.5 	94.2701
-0.15625 	-0.9375 	0.5 	96.2208
-0.140625 	-0.9375 	0.5 	97.9359
-0.125 	-0.9375 	0.5 	99.3902
-0.109375 	-0.9375 	0.5 	100.519
-0.09375 	-0.9375 	0.5 	102.006
-0.078125 	-0.9375 	0.5 	103.359
-0.0625 	-0.9375 	0.5 	105.362
-0.046875 	-0.9375 	0.5 	106.868
-0.03125 	-0.9375 	0.5 	108.832
-0.015625 	-0.9375 	0.5 	109.95
0 	-0.9375 	0.5 	111.162
0.015625 	-0.9375 	0.5 	112.301
0.03125 	-0.9375 	0.5 	113.476
0.046875 	-0.9375 	0.5 	114.661
0.0625 	-0.9375 	0.5 	115.789
0.078125 	-0.9375 	0.5 	117.036
0.09375 	-0.9375 	0.5 	118.044
0.109375 	-0.9375 	0.5 	119.356
0.125 	-0.9375 	0.5 	120.483
0.140625 	-0.9375 	0.5 	121.27
0.15625 	-0.9375 	0.5 	122.02
0.171875 	-0.9375 	0.5 	122.418
0.1875 	-0.9375 	0.5 	122.904
0.203125 	-0.9375 	0.5 	123.478
0.21875 	-0.9375 	0.5 	124.333
0.234375 	-0.9375 	0.5 	126.108
0.25 	-0.9375 	0.5 	126.266
0.265625 	-0.9375 	0.5 	125.926
0.28125 	-0.9375 	0.5 	126.1
0.296875 	-0.9375 	0.5 	126.178
0.3125 	-0.9375 	0.5 	126.358
0.328125 	-0.9375 	0.5 	126.567
0.34375 	-0.9375 	0.5 	126.553
0.359375 	-0.9375 	0.5 	126.634
0.375 	-0.9375 	0.5 	126.543
0.390625 	-0.9375 	0.5 	126.397
0.40625 	-0.9375 	0.5 	126.257
0.421875 	-0.9375 	0.5 	126.072
0.4375 	-0.9375 	0.5 	125.608
0.453125 	-0.9375 	0.5 	125.092
0.46875 	-0.9375 	0.5 	124.756
0.484375 	-0.9375 	0.5 	124.289
0.5 	-0.9375 	0.5 	123.619
0.515625 	-0.9375 	0.5 	122.866
0.53125 	-0.9375 	0.5 	122.027
0.546875 	-0.9375 	0.5 	121.586
0.5625 	-0.9375 	0.5 	120.82
0.578125 	-0.9375 	0.5 	120.291
0.59375 	-0.9375 	0.5 	119.24
0.609375 	-0.9375 	0.5 	118.19
0.625 	-0.9375 	0.5 	117.166
0.640625 	-0.9375 	0.5 	116.394
0.65625 	-0.9375 	0.5 	115.498
0.671875 	-0.9375 	0.5 	114.327
0.6875 	-0.9375 	0.5 	113.203
0.703125 	-0.9375 	0.5 	112.213
0.71875 	-0.9375 	0.5 	110.799
0.734375 	-0.9375 	0.5 	109.615
0.75 	-0.9375 	0.5 	108.167
0.765625 	-0.9375 	0.5 	107.07
0.78125 	-0.9375 	0.5 	105.904
0.796875 	-0.9375 	0.5 	104.834
0.8125 	-0.9375 	0.5 	103.14
0.828125 	-0.9375 	0.5 	101.795
0.84375 	-0.9375 	0.5 	100.408
0.859375 	-0.9375 	0.5 	98.8238
0.875 	-0.9375 	0.5 	97.4119
0.890625 	-0.9375 	0.5 	95.8102
0.90625 	-0.9375 	0.5 	93.7952
0.921875 	-0.9375 	0.5 	92.6669
0.9375 	-0.9375 	0.5 	91.2195
0.953125 	-0.9375 	0.5 	89.9705
0.96875 	-0.9375 	0.5 	88.5342
0.984375 	-0.9375 	0.5 	87.0978
1 	-0.9375 	0.5 	85.7
1.01562 	-0.9375 	0.5 	84.5476
1.03125 	-0.9375 	0.5 	82.8669
1.04688 	-0.9375 	0.5 	81.1861
1.0625 	-0.9375 	0.5 	79.6089
1.07812 	-0.9375 	0.5 	78.2981
1.09375 	-0.9375 	0.5 	76.9874
1.10938 	-0.9375 	0.5 	75.1992
1.125 	-0.9375 	0.5 	74.0683
1.14062 	-0.9375 	0.5 	72.5779
1.15625 	-0.9375 	0.5 	70.8886
1.17188 	-0.9375 	0.5 	69.0985
1.1875 	-0.9375 	0.5 	67.6374
1.20312 	-0.9375 	0.5 	66.3255
1.21875 	-0.9375 	0.5 	64.7517
1.23438 	-0.9375 	0.5 	63.4024
1.25 	-0.9375 	0.5 	62.1496
1.26562 	-0.9375 	0.5 	60.7739
1.28125 	-0.9375 	0.5 	59.2788
1.29688 	-0.9375 	0.5 	57.9443
1.3125 	-0.9375 	0.5 	56.5149
1.32812 	-0.9375 	0.5 	55.1361
1.34375 	-0.9375 	0.5 	53.7872
1.35938 	-0.9375 	0.5 	52.5981
1.375 	-0.9375 	0.5 	51.5686
1.39062 	-0.9375 	0.5 	50.3074
1.40625 	-0.9375 	0.5 	48.9204
1.42188 	-0.9375 	0.5 	47.0001
1.4375 	-0.9375 	0.5 	45.3249
1.45312 	-0.9375 	0.5 	44.782
1.46875 	-0.9375 	0.5 	43.5468
1.48438 	-0.9375 	0.5 	42.3552
-0.5 	-0.921875 	0.5 	56.1869
-0.484375 	-0.921875 	0.5 	58.1167
-0.46875 	-0.921875 	0.5 	59.8836
-0.453125 	-0.921875 	0.5 	61.6516
-0.4375 	-0.921875 	0.5 	63.5362
-0.421875 	-0.921875 	0.5 	65.4154
-0.40625 	-0.921875 	0.5 	67.2137
-0.390625 	-0.921875 	0.5 	69.249
-0.375 	-0.921875 	0.5 	71.2171
-0.359375 	-0.921875 	0.5 	73.2621
-0.34375 	-0.921875 	0.5 	74.9866
-0.328125 	-0.921875 	0.5 	75.9531
-0.3125 	-0.921875 	0.5 	77.187
-0.296875 	-0.921875 	0.5 	80.5911
-0.28125 	-0.921875 	0.5 	82.578
-0.265625 	-0.921875 	0.5 	84.6574
-0.25 	-0.921875 	0.5 	85.8924
-0.234375 	-0.921875 	0.5 	87.5606
-0.21875 	-0.921875 	0.5 	89.3942
-0.203125 	-0.921875 	0.5 	91.2823
-0.1875 	-0.921875 	0.5 	94.0859
-0.171875 	-0.921875 	0.5 	95.7659
-0.15625 	-0.921875 	0.5 	97.705
-0.140625 	-0.921875 	0.5 	99.4282
-0.125 	-0.921875 	0.5 	100.87
-0.109375 	-0.921875 	0.5 	102.066
-0.09375 	-0.921875 	0.5 	103.684
-0.078125 	-0.921875 	0.5 	105.311
-0.0625 	-0.921875 	0.5 	106.948
-0.046875 	-0.921875 	0.5 	108.766
-0.03125 	-0.921875 	0.5 	110.71
-0.015625 	-0.921875 	0.5 	111.726
0 	-0.921875 	0.5 	112.928
0.015625 	-0.921875 	0.5 	114.027
0.03125 	-0.921875 	0.5 	115.328
0.046875 	-0.921875 	0.5 	116.774
0.0625 	-0.921875 	0.5 	118.029
0.078125 	-0.921875 	0.5 	118.983
0.09375 	-0.921875 	0.5 	120.288
0.109375 	-0.921875 	0.5 	121.273
0.125 	-0.921875 	0.5 	122.631
0.140625 	-0.921875 	0.5 	123.552
0.15625 	-0.921875 	0.5 	124.413
0.171875 	-0.921875 	0.5 	124.423
0.1875 	-0.921875 	0.5 	125.08
0.203125 	-0.921875 	0.5 	125.913
0.21875 	-0.921875 	0.5 	126.727
0.234375 	-0.921875 	0.5 	127.828
0.25 	-0.921875 	0.5 	128.195
0.265625 	-0.921875 	0.5 	128.007
0.28125 	-0.921875 	0.5 	128.229
0.296875 	-0.921875 	0.5 	128.537
0.3125 	-0.921875 	0.5 	128.68
0.328125 	-0.921875 	0.5 	128.969
0.34375 	-0.921875 	0.5 	129.033
0.359375 	-0.921875 	0.5 	128.86
0.375 	-0.921875 	0.5 	128.801
0.390625 	-0.921875 	0.5 	128.765
0.40625 	-0.921875 	0.5 	128.556
0.421875 	-0.921875 	0.5 	128.274
0.4375 	-0.921875 	0.5 	127.855
0.453125 	-0.921875 	0.5 	127.34
0.46875 	-0.921875 	0.5 	126.549
0.484375 	-0.921875 	0.5 	125.827
0.5 	-0.921875 	0.5 	125.279
0.515625 	-0.921875 	0.5 	125.155
0.53125 	-0.921875 	0.5 	124.161
0.546875 	-0.921875 	0.5 	123.577
0.5625 	-0.921875 	0.5 	122.945
0.578125 	-0.921875 	0.5 	122.449
0.59375 	-0.921875 	0.5 	121.409
0.609375 	-0.921875 	0.5 	120.129
0.625 	-0.921875 	0.5 	118.855
0.640625 	-0.921875 	0.5 	117.899
0.65625 	-0.921875 	0.5 	117.062
0.671875 	-0.921875 	0.5 	115.937
0.6875 	-0.921875 	0.5 	114.944
0.703125 	-0.921875 	0.5 	113.582
0.71875 	-0.921875 	0.5 	112.563
0.734375 	-0.921875 	0.5 	111.566
0.75 	-0.921875 	0.5 	110.144
0.765625 	-0.921875 	0.5 	108.611
0.78125 	-0.921875 	0.5 	106.569
0.796875 	-0.921875 	0.5 	105.65
0.8125 	-0.921875 	0.5 	104.374
0.828125 	-0.921875 	0.5 	103.036
0.84375 	-0.921875 	0.5 	101.734
0.859375 	-0.921875 	0.5 	100.298
0.875 	-0.921875 	0.5 	98.7878
0.890625 	-0.921875 	0.5 	97.1538
0.90625 	-0.921875 	0.5 	95.2284
0.921875 	-0.921875 	0.5 	93.7438
0.9375 	-0.921875 	0.5 	92.522
0.953125 	-0.921875 	0.5 	91.2043
0.96875 	-0.921875 	0.5 	89.5879
0.984375 	-0.921875 	0.5 	88.1677
1 	-0.921875 	0.5 	86.7875
1.01562 	-0.921875 	0.5 	85.3524
1.03125 	-0.921875 	0.5 	84.2414
1.04688 	-0.921875 	0.5 	81.9016
1.0625 	-0.921875 	0.5 	80.1028
1.07812 	-0.921875 	0.5 	78.4216
1.09375 	-0.921875 	0.5 	77.2116
1.10938 	-0.921875 	0.5 	75.723
1.125 	-0.921875 	0.5 	74.4262
1.14062 	-0.921875 	0.5 	73.0867
1.15625 	-0.921875 	0.5 	71.3791
1.17188 	-0.921875 	0.5 	69.7236
1.1875 	-0.921875 	0.5 	68.068
1.20312 	-0.921875 	0.5 	66.573
1.21875 	-0.921875 	0.5 	65.1676
1.23438 	-0.921875 	0.5 	63.753
1.25 	-0.921875 	0.5 	62.3384
1.26562 	-0.921875 	0.5 	60.9151
1.28125 	-0.921875 	0.5 	59.4706
1.29688 	-0.921875 	0.5 	58.103
1.3125 	-0.921875 	0.5 	56.7056
1.32812 	-0.921875 	0.5 	55.3177
1.34375 	-0.921875 	0.5 	53.8002
1.35938 	-0.921875 	0.5 	52.5432
1.375 	-0.921875 	0.5 	51.3565
1.39062 	-0.921875 	0.5 	50.1307
1.40625 	-0.921875 	0.5 	48.8835
1.42188 	-0.921875 	0.5 	47.631
1.4375 	-0.921875 	0.5 	46.2511
1.45312 	-0.921875 	0.5 	44.8875
1.46875 	-0.921875 	0.5 	43.634
1.48438 	-0.921875 	0.5 	42.2859
-0.5 	-0.90625 	0.5 	56.3249
-0.484375 	-0.90625 	0.5 	58.1514
-0.46875 	-0.90625 	0.5 	59.894
-0.453125 	-0.90625 	0.5 	61.8348
-0.4375 	-0.90625 	0.5 	63.8157
-0.421875 	-0.90625 	0.5 	65.9106
-0.40625 	-0.90625 	0.5 	67.7436
-0.390625 	-0.90625 	0.5 	69.866
-0.375 	-0.90625 	0.5 	71.8358
-0.359375 	-0.90625 	0.5 	73.7505
-0.34375 	-0.90625 	0.5 	75.3493
-0.328125 	-0.90625 	0.5 	77.5343
-0.3125 	-0.90625 	0.5 	79.5629
-0.296875 	-0.90625 	0.5 	81.2789
-0.28125 	-0.90625 	0.5 	83.5879
-0.265625 	-0.90625 	0.5 	85.0418
-0.25 	-0.90625 	0.5 	86.6476
-0.234375 	-0.90625 	0.5 	88.2533
-0.21875 	-0.90625 	0.5 	89.9907
-0.203125 	-0.90625 	0.5 	92.9976
-0.1875 	-0.90625 	0.5 	95.4379
-0.171875 	-0.90625 	0.5 	97.6958
-0.15625 	-0.90625 	0.5 	99.1621
-0.140625 	-0.90625 	0.5 	100.92
-0.125 	-0.90625 	0.5 	102.012
-0.109375 	-0.90625 	0.5 	102.679
-0.09375 	-0.90625 	0.5 	105.134
-0.078125 	-0.90625 	0.5 	106.96
-0.0625 	-0.90625 	0.5 	108.976
-0.046875 	-0.90625 	0.5 	110.899
-0.03125 	-0.90625 	0.5 	112.115
-0.015625 	-0.90625 	0.5 	113.429
0 	-0.90625 	0.5 	114.711
0.015625 	-0.90625 	0.5 	115.998
0.03125 	-0.90625 	0.5 	117.688
0.046875 	-0.90625 	0.5 	119.097
0.0625 	-0.90625 	0.5 	120.181
0.078125 	-0.90625 	0.5 	121.418
0.09375 	-0.90625 	0.5 	122.733
0.109375 	-0.90625 	0.5 	123.532
0.125 	-0.90625 	0.5 	124.631
0.140625 	-0.90625 	0.5 	125.591
0.15625 	-0.90625 	0.5 	126.543
0.171875 	-0.90625 	0.5 	127.018
0.1875 	-0.90625 	0.5 	127.572
0.203125 	-0.90625 	0.5 	128.332
0.21875 	-0.90625 	0.5 	129.124
0.234375 	-0.90625 	0.5 	129.624
0.25 	-0.90625 	0.5 	130.185
0.265625 	-0.90625 	0.5 	130.089
0.28125 	-0.90625 	0.5 	130.55
0.296875 	-0.90625 	0.5 	131.11
0.3125 	-0.90625 	0.5 	131.381
0.328125 	-0.90625 	0.5 	131.434
0.34375 	-0.90625 	0.5 	131.3
0.359375 	-0.90625 	0.5 	131.069
0.375 	-0.90625 	0.5 	130.958
0.390625 	-0.90625 	0.5 	130.947
0.40625 	-0.90625 	0.5 	131.017
0.421875 	-0.90625 	0.5 	130.553
0.4375 	-0.90625 	0.5 	130.034
0.453125 	-0.90625 	0.5 	129.482
0.46875 	-0.90625 	0.5 	129.032
0.484375 	-0.90625 	0.5 	127.741
0.5 	-0.90625 	0.5 	127.922
0.515625 	-0.90625 	0.5 	127.528
0.53125 	-0.90625 	0.5 	126.556
0.546875 	-0.90625 	0.5 	125.557
0.5625 	-0.90625 	0.5 	124.827
0.578125 	-0.90625 	0.5 	123.995
0.59375 	-0.90625 	0.5 	123.168
0.609375 	-0.90625 	0.5 	121.957
0.625 	-0.90625 	0.5 	120.653
0.640625 	-0.90625 	0.5 	119.625
0.65625 	-0.90625 	0.5 	119.236
0.671875 	-0.90625 	0.5 	117.763
0.6875 	-0.90625 	0.5 	116.592
0.703125 	-0.90625 	0.5 	115.165
0.71875 	-0.90625 	0.5 	113.922
0.734375 	-0.90625 	0.5 	112.845
0.75 	-0.90625 	0.5 	112.055
0.765625 	-0.90625 	0.5 	109.65
0.78125 	-0.90625 	0.5 	108.349
0.796875 	-0.90625 	0.5 	106.539
0.8125 	-0.90625 	0.5 	106.07
0.828125 	-0.90625 	0.5 	104.406
0.84375 	-0.90625 	0.5 	103.108
0.859375 	-0.90625 	0.5 	101.708
0.875 	-0.90625 	0.5 	99.8865
0.890625 	-0.90625 	0.5 	98.2616
0.90625 	-0.90625 	0.5 	96.5885
0.921875 	-0.90625 	0.5 	94.9589
0.9375 	-0.90625 	0.5 	93.611
0.953125 	-0.90625 	0.5 	92.2991
0.96875 	-0.90625 	0.5 	90.5755
0.984375 	-0.90625 	0.5 	89.1239
1 	-0.90625 	0.5 	87.8818
1.01562 	-0.90625 	0.5 	86.2745
1.03125 	-0.90625 	0.5 	84.5996
1.04688 	-0.90625 	0.5 	81.6929
1.0625 	-0.90625 	0.5 	80.6706
1.07812 	-0.90625 	0.5 	78.4482
1.09375 	-0.90625 	0.5 	77.3611
1.10938 	-0.90625 	0.5 	76.0317
1.125 	-0.90625 	0.5 	75.0975
1.14062 	-0.90625 	0.5 	73.7687
1.15625 	-0.90625 	0.5 	71.7044
1.17188 	-0.90625 	0.5 	70.047
1.1875 	-0.90625 	0.5 	68.5478
1.20312 	-0.90625 	0.5 	66.8683
1.21875 	-0.90625 	0.5 	65.4051
1.23438 	-0.90625 	0.5 	64.0422
1.25 	-0.90625 	0.5 	62.32
1.26562 	-0.90625 	0.5 	60.8749
1.28125 	-0.90625 	0.5 	59.5559
1.29688 	-0.90625 	0.5 	58.237
1.3125 	-0.90625 	0.5 	56.6561
1.32812 	-0.90625 	0.5 	54.9949
1.34375 	-0.90625 	0.5 	53.8036
1.35938 	-0.90625 	0.5 	52.3503
1.375 	-0.90625 	0.5 	51.1916
1.39062 	-0.90625 	0.5 	49.965
1.40625 	-0.90625 	0.5 	48.8002
1.42188 	-0.90625 	0.5 	47.4727
1.4375 	-0.90625 	0.5 	46.1427
1.45312 	-0.90625 	0.5 	44.776
1.46875 	-0.90625 	0.5 	43.5338
1.48438 	-0.90625 	0.5 	42.1821
-0.5 	-0.890625 	0.5 	56.3287
-0.484375 	-0.890625 	0.5 	58.3232
-0.46875 	-0.890625 	0.5 	60.1276
-0.453125 	-0.890625 	0.5 	62.0243
-0.4375 	-0.890625 	0.5 	63.8979
-0.421875 	-0.890625 	0.5 	66.0991
-0.40625 	-0.890625 	0.5 	68.2712
-0.390625 	-0.890625 	0.5 	70.2545
-0.375 	-0.890625 	0.5 	72.4337
-0.359375 	-0.890625 	0.5 	74.5578
-0.34375 	-0.890625 	0.5 	76.6251
-0.328125 	-0.890625 	0.5 	77.596
-0.3125 	-0.890625 	0.5 	78.7724
-0.296875 	-0.890625 	0.5 	82.1198
-0.28125 	-0.890625 	0.5 	84.5614
-0.265625 	-0.890625 	0.5 	86.333
-0.25 	-0.890625 	0.5 	87.4439
-0.234375 	-0.890625 	0.5 	89.3992
-0.21875 	-0.890625 	0.5 	91.0995
-0.203125 	-0.890625 	0.5 	93.6117
-0.1875 	-0.890625 	0.5 	96.2298
-0.171875 	-0.890625 	0.5 	98.6669
-0.15625 	-0.890625 	0.5 	100.279
-0.140625 	-0.890625 	0.5 	102.333
-0.125 	-0.890625 	0.5 	103.592
-0.109375 	-0.890625 	0.5 	105.418
-0.09375 	-0.890625 	0.5 	107.022
-0.078125 	-0.890625 	0.5 	108.673
-0.0625 	-0.890625 	0.5 	110.385
-0.046875 	-0.890625 	0.5 	112.169
-0.03125 	-0.890625 	0.5 	113.917
-0.015625 	-0.890625 	0.5 	115.337
0 	-0.890625 	0.5 	116.763
0.015625 	-0.890625 	0.5 	118.049
0.03125 	-0.890625 	0.5 	119.629
0.046875 	-0.890625 	0.5 	120.768
0.0625 	-0.890625 	0.5 	122.139
0.078125 	-0.890625 	0.5 	123.477
0.09375 	-0.890625 	0.5 	125.095
0.109375 	-0.890625 	0.5 	125.981
0.125 	-0.890625 	0.5 	126.812
0.140625 	-0.890625 	0.5 	127.581
0.15625 	-0.890625 	0.5 	128.21
0.171875 	-0.890625 	0.5 	129.027
0.1875 	-0.890625 	0.5 	129.823
0.203125 	-0.890625 	0.5 	130.814
0.21875 	-0.890625 	0.5 	131.307
0.234375 	-0.890625 	0.5 	131.718
0.25 	-0.890625 	0.5 	131.922
0.265625 	-0.890625 	0.5 	132.581
0.28125 	-0.890625 	0.5 	133.091
0.296875 	-0.890625 	0.5 	133.622
0.3125 	-0.890625 	0.5 	133.846
0.328125 	-0.890625 	0.5 	133.772
0.34375 	-0.890625 	0.5 	133.789