-0.5 	-1 	0.5 	36.4404 	9.45633 	3.01263e-19
-0.484375 	-1 	0.5 	36.3983 	9.43998 	3.5231e-20
-0.46875 	-1 	0.5 	36.3568 	9.41537 	-1.68971e-19
-0.453125 	-1 	0.5 	36.3156 	9.39359 	-3.02707e-19
-0.4375 	-1 	0.5 	36.278 	9.37629 	6.04958e-19
-0.421875 	-1 	0.5 	36.2304 	9.34978 	1.74869e-19
-0.40625 	-1 	0.5 	36.1865 	9.32324 	-1.61062e-19
-0.390625 	-1 	0.5 	36.153 	9.29286 	2.02326e-20
-0.375 	-1 	0.5 	36.1229 	9.26231 	4.04103e-20
-0.359375 	-1 	0.5 	36.09 	9.23936 	7.82541e-20
-0.34375 	-1 	0.5 	36.0537 	9.21162 	2.50553e-20
-0.328125 	-1 	0.5 	36.0223 	9.18514 	1.30659e-19
-0.3125 	-1 	0.5 	35.9865 	9.15978 	5.07368e-19
-0.296875 	-1 	0.5 	35.9429 	9.12867 	-2.24781e-19
-0.28125 	-1 	0.5 	35.9032 	9.10359 	-5.53805e-19
-0.265625 	-1 	0.5 	35.8737 	9.06658 	3.57177e-20
-0.25 	-1 	0.5 	35.8392 	9.03044 	4.85045e-19
-0.234375 	-1 	0.5 	35.8034 	8.98856 	3.01865e-19
-0.21875 	-1 	0.5 	35.7677 	8.95261 	2.00972e-19
-0.203125 	-1 	0.5 	35.7357 	8.91166 	2.10495e-19
-0.1875 	-1 	0.5 	35.7053 	8.87358 	4.74313e-19
-0.171875 	-1 	0.5 	35.6704 	8.83522 	8.86945e-19
-0.15625 	-1 	0.5 	35.6365 	8.7961 	6.04448e-19
-0.140625 	-1 	0.5 	35.6084 	8.75716 	1.60069e-19
-0.125 	-1 	0.5 	35.5819 	8.71397 	1.61638e-19
-0.109375 	-1 	0.5 	35.554 	8.6663 	4.24656e-19
-0.09375 	-1 	0.5 	35.5268 	8.61906 	3.98946e-19
-0.078125 	-1 	0.5 	35.5045 	8.58084 	1.0402e-19
-0.0625 	-1 	0.5 	35.4823 	8.5327 	-8.70491e-20
-0.046875 	-1 	0.5 	35.4601 	8.48505 	-2.79316e-19
-0.03125 	-1 	0.5 	35.4312 	8.43658 	-3.48443e-19
-0.015625 	-1 	0.5 	35.4035 	8.38747 	-3.6552e-19
0 	-1 	0.5 	35.3864 	8.32891 	-5.06629e-19
0.015625 	-1 	0.5 	35.3676 	8.27568 	-3.03228e-19
0.03125 	-1 	0.5 	35.3502 	8.22294 	-1.74953e-20
0.046875 	-1 	0.5 	35.3311 	8.17515 	-5.72155e-20
0.0625 	-1 	0.5 	35.3197 	8.1195 	2.78676e-19
0.078125 	-1 	0.5 	35.3085 	8.06523 	5.99058e-19
0.09375 	-1 	0.5 	35.2948 	8.01539 	-3.63445e-19
0.109375 	-1 	0.5 	35.2836 	7.96077 	-1.83919e-19
0.125 	-1 	0.5 	35.2706 	7.89911 	-4.21374e-20
0.140625 	-1 	0.5 	35.2613 	7.84472 	2.06661e-19
0.15625 	-1 	0.5 	35.2616 	7.78079 	1.33899e-18
0.171875 	-1 	0.5 	35.2595 	7.72269 	8.06549e-19
0.1875 	-1 	0.5 	35.2471 	7.6737 	-5.32797e-19
0.203125 	-1 	0.5 	35.2434 	7.61427 	8.24188e-19
0.21875 	-1 	0.5 	35.2465 	7.56452 	-1.889e-18
0.234375 	-1 	0.5 	35.2418 	7.50491 	-1.25572e-18
0.25 	-1 	0.5 	35.2606 	7.45195 	1.29152e-18
0.265625 	-1 	0.5 	35.2586 	7.39334 	7.01535e-19
0.28125 	-1 	0.5 	35.2555 	7.34175 	-5.77756e-19
0.296875 	-1 	0.5 	35.2618 	7.28268 	1.56634e-19
0.3125 	-1 	0.5 	35.2635 	7.23105 	-4.64787e-19
0.328125 	-1 	0.5 	35.2875 	7.16998 	9.49459e-19
0.34375 	-1 	0.5 	35.2977 	7.11292 	4.00727e-20
0.359375 	-1 	0.5 	35.3115 	7.06108 	-6.56602e-19
0.375 	-1 	0.5 	35.3091 	7.00753 	6.71504e-19
0.390625 	-1 	0.5 	35.3277 	6.95259 	5.80161e-19
0.40625 	-1 	0.5 	35.3518 	6.8986 	2.87954e-19
0.421875 	-1 	0.5 	35.3698 	6.84647 	1.82194e-19
0.4375 	-1 	0.5 	35.3885 	6.7956 	3.84995e-20
0.453125 	-1 	0.5 	35.4054 	6.73851 	4.48848e-20
0.46875 	-1 	0.5 	35.4268 	6.69018 	-1.64796e-19
0.484375 	-1 	0.5 	35.4482 	6.64325 	-3.12466e-19
0.5 	-1 	0.5 	35.4708 	6.6062 	-3.67765e-20
0.515625 	-1 	0.5 	35.4984 	6.55462 	-1.07392e-19
0.53125 	-1 	0.5 	35.5248 	6.50841 	-9.70147e-20
0.546875 	-1 	0.5 	35.5552 	6.45914 	-1.03353e-19
0.5625 	-1 	0.5 	35.5853 	6.41061 	-7.08297e-20
0.578125 	-1 	0.5 	35.613 	6.36496 	1.65027e-22
0.59375 	-1 	0.5 	35.6396 	6.32204 	-1.42062e-19
0.609375 	-1 	0.5 	35.6748 	6.28063 	-1.78515e-18
0.625 	-1 	0.5 	35.7017 	6.23353 	2.62444e-19
0.640625 	-1 	0.5 	35.7301 	6.19322 	8.29314e-19
0.65625 	-1 	0.5 	35.764 	6.15446 	1.02009e-18
0.671875 	-1 	0.5 	35.7993 	6.11919 	7.13655e-19
0.6875 	-1 	0.5 	35.8346 	6.08391 	4.07222e-19
0.703125 	-1 	0.5 	35.8698 	6.04756 	1.81283e-19
0.71875 	-1 	0.5 	35.9049 	6.01099 	-9.15401e-20
0.734375 	-1 	0.5 	35.94 	5.97442 	-3.64363e-19
0.75 	-1 	0.5 	35.9688 	5.93721 	-2.03809e-19
0.765625 	-1 	0.5 	36.0184 	5.91165 	-3.46487e-19
0.78125 	-1 	0.5 	36.0608 	5.88522 	-4.44992e-20
0.796875 	-1 	0.5 	36.1025 	5.86011 	3.44591e-20
0.8125 	-1 	0.5 	36.1363 	5.83025 	2.40362e-20
0.828125 	-1 	0.5 	36.174 	5.80051 	-2.28451e-19
0.84375 	-1 	0.5 	36.215 	5.76661 	2.14578e-21
0.859375 	-1 	0.5 	36.2546 	5.73084 	4.99661e-20
0.875 	-1 	0.5 	36.2954 	5.71015 	-1.08129e-20
0.890625 	-1 	0.5 	36.3367 	5.68796 	-5.5844e-21
0.90625 	-1 	0.5 	36.3758 	5.6708 	-6.4956e-20
0.921875 	-1 	0.5 	36.4098 	5.64621 	-2.41709e-20
0.9375 	-1 	0.5 	36.455 	5.62727 	-1.015e-19
0.953125 	-1 	0.5 	36.4994 	5.60098 	-3.49652e-19
0.96875 	-1 	0.5 	36.5342 	5.59206 	-1.48257e-19
0.984375 	-1 	0.5 	36.5721 	5.57727 	-1.9991e-19
1 	-1 	0.5 	36.6095 	5.56448 	-1.15291e-19
1.01562 	-1 	0.5 	36.6508 	5.55048 	-1.27881e-19
1.03125 	-1 	0.5 	36.6873 	5.54086 	-5.52825e-20
1.04688 	-1 	0.5 	36.7256 	5.52505 	-2.66739e-20
1.0625 	-1 	0.5 	36.7647 	5.50697 	-1.89209e-20
1.07812 	-1 	0.5 	36.8052 	5.493 	-2.07479e-20
1.09375 	-1 	0.5 	36.845 	5.48395 	-2.99697e-21
1.10938 	-1 	0.5 	36.8846 	5.47496 	2.41412e-20
1.125 	-1 	0.5 	36.924 	5.46601 	5.72214e-20
1.14062 	-1 	0.5 	36.964 	5.46079 	-1.86449e-19
1.15625 	-1 	0.5 	37.0044 	5.45598 	-3.9525e-19
1.17188 	-1 	0.5 	37.0443 	5.44953 	6.91404e-20
1.1875 	-1 	0.5 	37.0821 	5.44277 	3.362e-19
1.20312 	-1 	0.5 	37.1198 	5.4369 	-5.16924e-19
1.21875 	-1 	0.5 	37.1555 	5.43121 	-9.22253e-19
1.23438 	-1 	0.5 	37.1898 	5.43355 	-5.42448e-20
1.25 	-1 	0.5 	37.2278 	5.43112 	-1.50832e-20
1.26562 	-1 	0.5 	37.2671 	5.42787 	8.25006e-21
1.28125 	-1 	0.5 	37.3068 	5.42609 	6.99892e-22
1.29688 	-1 	0.5 	37.3426 	5.42479 	1.46986e-20
1.3125 	-1 	0.5 	37.378 	5.42888 	5.55464e-19
1.32812 	-1 	0.5 	37.408 	5.42818 	-4.02488e-19
1.34375 	-1 	0.5 	37.4393 	5.42976 	-7.66997e-19
1.35938 	-1 	0.5 	37.4758 	5.4332 	2.02501e-20
1.375 	-1 	0.5 	37.507 	5.43773 	1.36109e-19
1.39062 	-1 	0.5 	37.5417 	5.43971 	-7.09518e-20
1.40625 	-1 	0.5 	37.5739 	5.43786 	-2.96929e-19
1.42188 	-1 	0.5 	37.6063 	5.44238 	-2.19946e-19
1.4375 	-1 	0.5 	37.6362 	5.44778 	-5.47488e-20
1.45312 	-1 	0.5 	37.6669 	5.45336 	-3.28824e-19
1.46875 	-1 	0.5 	37.697 	5.4593 	-3.62838e-19
1.48438 	-1 	0.5 	37.7273 	5.46325 	-6.6723e-19
-0.5 	-0.984375 	0.5 	36.42 	9.49149 	5.66213e-20
-0.484375 	-0.984375 	0.5 	36.3803 	9.47605 	7.30034e-20
-0.46875 	-0.984375 	0.5 	36.3395 	9.45454 	-2.79901e-19
-0.453125 	-0.984375 	0.5 	36.2984 	9.43276 	-4.16068e-19
-0.4375 	-0.984375 	0.5 	36.2584 	9.41244 	1.77496e-19
-0.421875 	-0.984375 	0.5 	36.2125 	9.39113 	-6.13376e-20
-0.40625 	-0.984375 	0.5 	36.1645 	9.36596 	-2.5656e-20
-0.390625 	-0.984375 	0.5 	36.1316 	9.33466 	-6.16258e-19
-0.375 	-0.984375 	0.5 	36.0926 	9.30454 	-1.78169e-19
-0.359375 	-0.984375 	0.5 	36.0568 	9.27426 	1.06276e-19
-0.34375 	-0.984375 	0.5 	36.0237 	9.24788 	1.16705e-19
-0.328125 	-0.984375 	0.5 	35.989 	9.22362 	6.5274e-19
-0.3125 	-0.984375 	0.5 	35.9506 	9.19576 	6.65191e-19
-0.296875 	-0.984375 	0.5 	35.911 	9.16665 	4.95397e-19
-0.28125 	-0.984375 	0.5 	35.8676 	9.13666 	-2.05011e-19
-0.265625 	-0.984375 	0.5 	35.8348 	9.10067 	1.88894e-19
-0.25 	-0.984375 	0.5 	35.7994 	9.06071 	2.1787e-19
-0.234375 	-0.984375 	0.5 	35.764 	9.02076 	2.46847e-19
-0.21875 	-0.984375 	0.5 	35.7291 	8.97887 	1.98637e-19
-0.203125 	-0.984375 	0.5 	35.6922 	8.94131 	4.12207e-19
-0.1875 	-0.984375 	0.5 	35.6575 	8.90248 	5.37933e-19
-0.171875 	-0.984375 	0.5 	35.6228 	8.86394 	7.77795e-19
-0.15625 	-0.984375 	0.5 	35.5885 	8.82516 	8.07762e-19
-0.140625 	-0.984375 	0.5 	35.5578 	8.78593 	2.56789e-19
-0.125 	-0.984375 	0.5 	35.5305 	8.74081 	3.80048e-19
-0.109375 	-0.984375 	0.5 	35.5078 	8.69669 	1.91057e-19
-0.09375 	-0.984375 	0.5 	35.4784 	8.64665 	2.72615e-19
-0.078125 	-0.984375 	0.5 	35.452 	8.60721 	1.33577e-19
-0.0625 	-0.984375 	0.5 	35.4298 	8.55629 	-2.82834e-20
-0.046875 	-0.984375 	0.5 	35.4046 	8.50448 	-1.15547e-19
-0.03125 	-0.984375 	0.5 	35.3763 	8.45589 	-4.365e-19
-0.015625 	-0.984375 	0.5 	35.35 	8.40631 	-3.9766e-19
0 	-0.984375 	0.5 	35.3303 	8.34571 	-9.04887e-19
0.015625 	-0.984375 	0.5 	35.3109 	8.2911 	-8.63457e-19
0.03125 	-0.984375 	0.5 	35.293 	8.24008 	-3.98341e-19
0.046875 	-0.984375 	0.5 	35.2757 	8.18705 	-2.42782e-19
0.0625 	-0.984375 	0.5 	35.2638 	8.1344 	-2.26388e-19
0.078125 	-0.984375 	0.5 	35.2518 	8.08166 	-2.12788e-19
0.09375 	-0.984375 	0.5 	35.2397 	8.02852 	-2.12256e-19
0.109375 	-0.984375 	0.5 	35.2246 	7.97168 	-1.21913e-19
0.125 	-0.984375 	0.5 	35.2072 	7.91201 	1.44796e-19
0.140625 	-0.984375 	0.5 	35.1924 	7.8534 	2.99188e-19
0.15625 	-0.984375 	0.5 	35.1925 	7.791 	1.89556e-19
0.171875 	-0.984375 	0.5 	35.1926 	7.73203 	7.89142e-20
0.1875 	-0.984375 	0.5 	35.1926 	7.67306 	-3.1728e-20
0.203125 	-0.984375 	0.5 	35.1892 	7.61528 	-2.40405e-19
0.21875 	-0.984375 	0.5 	35.1845 	7.55785 	-4.56267e-19
0.234375 	-0.984375 	0.5 	35.1798 	7.50043 	-6.7213e-19
0.25 	-0.984375 	0.5 	35.1841 	7.44428 	-2.00437e-19
0.265625 	-0.984375 	0.5 	35.1913 	7.38869 	4.85816e-19
0.28125 	-0.984375 	0.5 	35.1957 	7.3319 	2.23759e-19
0.296875 	-0.984375 	0.5 	35.2019 	7.27714 	8.88527e-20
0.3125 	-0.984375 	0.5 	35.2116 	7.21871 	3.81268e-19
0.328125 	-0.984375 	0.5 	35.2259 	7.16029 	7.12478e-19
0.34375 	-0.984375 	0.5 	35.2461 	7.10144 	1.0193e-18
0.359375 	-0.984375 	0.5 	35.2545 	7.04588 	2.1289e-19
0.375 	-0.984375 	0.5 	35.2672 	6.99156 	3.84878e-19
0.390625 	-0.984375 	0.5 	35.2751 	6.93697 	8.26217e-19
0.40625 	-0.984375 	0.5 	35.2956 	6.88038 	1.71494e-19
0.421875 	-0.984375 	0.5 	35.3143 	6.82722 	1.63126e-19
0.4375 	-0.984375 	0.5 	35.3325 	6.77557 	4.35642e-20
0.453125 	-0.984375 	0.5 	35.3505 	6.71859 	2.16014e-20
0.46875 	-0.984375 	0.5 	35.371 	6.6669 	-4.25548e-20
0.484375 	-0.984375 	0.5 	35.3924 	6.61837 	-2.15791e-19
0.5 	-0.984375 	0.5 	35.4172 	6.57354 	-1.16857e-19
0.515625 	-0.984375 	0.5 	35.4501 	6.52264 	5.47841e-19
0.53125 	-0.984375 	0.5 	35.4735 	6.47967 	-3.65067e-19
0.546875 	-0.984375 	0.5 	35.5046 	6.42969 	-3.40177e-19
0.5625 	-0.984375 	0.5 	35.5321 	6.3777 	-8.35807e-20
0.578125 	-0.984375 	0.5 	35.5645 	6.33466 	-1.17768e-19
0.59375 	-0.984375 	0.5 	35.5937 	6.29163 	-7.10285e-19
0.609375 	-0.984375 	0.5 	35.6241 	6.24698 	-2.54702e-19
0.625 	-0.984375 	0.5 	35.6553 	6.20194 	6.48243e-19
0.640625 	-0.984375 	0.5 	35.6857 	6.1594 	9.94699e-20
0.65625 	-0.984375 	0.5 	35.7187 	6.12062 	1.86191e-18
0.671875 	-0.984375 	0.5 	35.7512 	6.08317 	2.96426e-18
0.6875 	-0.984375 	0.5 	35.7893 	6.05081 	4.52747e-19
0.703125 	-0.984375 	0.5 	35.8278 	6.00927 	1.16029e-19
0.71875 	-0.984375 	0.5 	35.8646 	5.96688 	1.06637e-18
0.734375 	-0.984375 	0.5 	35.8995 	5.92722 	2.75056e-19
0.75 	-0.984375 	0.5 	35.9344 	5.88934 	-2.30248e-19
0.765625 	-0.984375 	0.5 	35.9798 	5.86207 	-4.14502e-19
0.78125 	-0.984375 	0.5 	36.0252 	5.83435 	-6.88824e-19
0.796875 	-0.984375 	0.5 	36.0654 	5.81487 	5.70119e-20
0.8125 	-0.984375 	0.5 	36.101 	5.78559 	1.46467e-20
0.828125 	-0.984375 	0.5 	36.1459 	5.76345 	2.22276e-19
0.84375 	-0.984375 	0.5 	36.1844 	5.73398 	4.12463e-20
0.859375 	-0.984375 	0.5 	36.2256 	5.69445 	1.56573e-19
0.875 	-0.984375 	0.5 	36.2676 	5.66871 	-1.47234e-20
0.890625 	-0.984375 	0.5 	36.3066 	5.65454 	-4.20876e-20
0.90625 	-0.984375 	0.5 	36.347 	5.63462 	-6.60017e-20
0.921875 	-0.984375 	0.5 	36.3806 	5.6102 	-2.52881e-20
0.9375 	-0.984375 	0.5 	36.4253 	5.59095 	-9.65704e-20
0.953125 	-0.984375 	0.5 	36.4694 	5.57274 	-2.99812e-19
0.96875 	-0.984375 	0.5 	36.5143 	5.55089 	-1.63255e-19
0.984375 	-0.984375 	0.5 	36.5551 	5.53767 	-7.89299e-20
1 	-0.984375 	0.5 	36.5934 	5.52479 	-3.15575e-21
1.01562 	-0.984375 	0.5 	36.6336 	5.5111 	9.01094e-21
1.03125 	-0.984375 	0.5 	36.6718 	5.49856 	4.59742e-20
1.04688 	-0.984375 	0.5 	36.7126 	5.48227 	1.21398e-19
1.0625 	-0.984375 	0.5 	36.7534 	5.46767 	1.71364e-19
1.07812 	-0.984375 	0.5 	36.797 	5.45702 	-2.20031e-19
1.09375 	-0.984375 	0.5 	36.8345 	5.44601 	6.26524e-20
1.10938 	-0.984375 	0.5 	36.8749 	5.43676 	5.28168e-20
1.125 	-0.984375 	0.5 	36.9123 	5.4274 	2.569e-19
1.14062 	-0.984375 	0.5 	36.9518 	5.42134 	2.6816e-19
1.15625 	-0.984375 	0.5 	36.9933 	5.41862 	-1.92268e-19
1.17188 	-0.984375 	0.5 	37.0329 	5.4121 	1.94989e-19
1.1875 	-0.984375 	0.5 	37.0706 	5.40426 	7.06143e-19
1.20312 	-0.984375 	0.5 	37.1084 	5.40001 	4.00676e-19
1.21875 	-0.984375 	0.5 	37.1461 	5.39555 	-3.005e-19
1.23438 	-0.984375 	0.5 	37.1819 	5.39405 	-6.15912e-20
1.25 	-0.984375 	0.5 	37.222 	5.38764 	-3.14111e-20
1.26562 	-0.984375 	0.5 	37.2616 	5.38422 	1.37521e-20
1.28125 	-0.984375 	0.5 	37.2991 	5.39085 	5.65243e-20
1.29688 	-0.984375 	0.5 	37.3356 	5.38909 	6.46135e-20
1.3125 	-0.984375 	0.5 	37.3753 	5.39456 	1.00009e-18
1.32812 	-0.984375 	0.5 	37.4075 	5.39374 	2.83842e-19
1.34375 	-0.984375 	0.5 	37.4393 	5.39463 	-1.15721e-19
1.35938 	-0.984375 	0.5 	37.4695 	5.39924 	6.77633e-19
1.375 	-0.984375 	0.5 	37.5067 	5.40597 	2.09617e-19
1.39062 	-0.984375 	0.5 	37.5339 	5.40841 	3.51329e-19
1.40625 	-0.984375 	0.5 	37.5684 	5.41116 	1.85191e-19
1.42188 	-0.984375 	0.5 	37.6035 	5.41394 	-1.19001e-20
1.4375 	-0.984375 	0.5 	37.6373 	5.41703 	-2.44469e-19
1.45312 	-0.984375 	0.5 	37.6676 	5.42079 	-5.73797e-19
1.46875 	-0.984375 	0.5 	37.6978 	5.42455 	-9.03125e-19
1.48438 	-0.984375 	0.5 	37.731 	5.43158 	-6.7617e-19
-0.5 	-0.96875 	0.5 	36.399 	9.52967 	3.96472e-20
-0.484375 	-0.96875 	0.5 	36.3571 	9.5139 	8.65808e-20
-0.46875 	-0.96875 	0.5 	36.3138 	9.49763 	1.28048e-20
-0.453125 	-0.96875 	0.5 	36.2741 	9.47474 	-6.86016e-20
-0.4375 	-0.96875 	0.5 	36.2371 	9.44775 	-2.74876e-19
-0.421875 	-0.96875 	0.5 	36.1939 	9.43146 	-7.9326e-20
-0.40625 	-0.96875 	0.5 	36.1476 	9.40976 	-1.89827e-20
-0.390625 	-0.96875 	0.5 	36.1101 	9.37719 	-6.07867e-19
-0.375 	-0.96875 	0.5 	36.072 	9.34691 	-3.12663e-19
-0.359375 	-0.96875 	0.5 	36.0305 	9.31705 	1.75472e-19
-0.34375 	-0.96875 	0.5 	35.9888 	9.28788 	1.00425e-19
-0.328125 	-0.96875 	0.5 	35.9531 	9.23296 	5.31879e-20
-0.3125 	-0.96875 	0.5 	35.9148 	9.20179 	2.23869e-20
-0.296875 	-0.96875 	0.5 	35.8749 	9.18031 	1.58936e-21
-0.28125 	-0.96875 	0.5 	35.8289 	9.17353 	2.90538e-21
-0.265625 	-0.96875 	0.5 	35.7908 	9.13343 	-1.66113e-19
-0.25 	-0.96875 	0.5 	35.7602 	9.08242 	-4.70592e-19
-0.234375 	-0.96875 	0.5 	35.7225 	9.04506 	-4.26044e-19
-0.21875 	-0.96875 	0.5 	35.68 	9.02107 	2.06934e-20
-0.203125 	-0.96875 	0.5 	35.6451 	8.98259 	2.61291e-19
-0.1875 	-0.96875 	0.5 	35.6109 	8.9345 	1.01515e-18
-0.171875 	-0.96875 	0.5 	35.5764 	8.89383 	7.86661e-19
-0.15625 	-0.96875 	0.5 	35.5417 	8.85394 	4.78538e-19
-0.140625 	-0.96875 	0.5 	35.5072 	8.81469 	3.545e-19
-0.125 	-0.96875 	0.5 	35.4816 	8.76894 	2.8411e-19
-0.109375 	-0.96875 	0.5 	35.4547 	8.72108 	2.57188e-19
-0.09375 	-0.96875 	0.5 	35.4278 	8.67321 	2.30266e-19
-0.078125 	-0.96875 	0.5 	35.3995 	8.62549 	2.48056e-19
-0.0625 	-0.96875 	0.5 	35.3748 	8.57493 	1.31194e-19
-0.046875 	-0.96875 	0.5 	35.3489 	8.52451 	-5.34772e-20
-0.03125 	-0.96875 	0.5 	35.3229 	8.47453 	-2.94164e-19
-0.015625 	-0.96875 	0.5 	35.2966 	8.42516 	-4.298e-19
0 	-0.96875 	0.5 	35.277 	8.36914 	-5.20348e-19
0.015625 	-0.96875 	0.5 	35.2552 	8.31518 	-2.20548e-19
0.03125 	-0.96875 	0.5 	35.2327 	8.26034 	-2.33899e-20
0.046875 	-0.96875 	0.5 	35.2143 	8.20609 	5.48964e-19
0.0625 	-0.96875 	0.5 	35.2 	8.14551 	-8.14137e-19
0.078125 	-0.96875 	0.5 	35.188 	8.09068 	-1.25963e-18
0.09375 	-0.96875 	0.5 	35.1739 	8.03937 	-1.78443e-19
0.109375 	-0.96875 	0.5 	35.1583 	7.97947 	-9.78321e-20
0.125 	-0.96875 	0.5 	35.1412 	7.92007 	1.48147e-19
0.140625 	-0.96875 	0.5 	35.132 	7.86148 	1.60702e-19
0.15625 	-0.96875 	0.5 	35.1314 	7.79377 	1.36317e-19
0.171875 	-0.96875 	0.5 	35.1314 	7.73503 	3.018e-20
0.1875 	-0.96875 	0.5 	35.1304 	7.67665 	-5.14797e-20
0.203125 	-0.96875 	0.5 	35.1279 	7.61944 	3.89947e-19
0.21875 	-0.96875 	0.5 	35.127 	7.56942 	-1.69478e-18
0.234375 	-0.96875 	0.5 	35.1193 	7.5037 	-7.56868e-19
0.25 	-0.96875 	0.5 	35.1205 	7.43896 	4.2545e-22
0.265625 	-0.96875 	0.5 	35.1309 	7.38472 	1.74148e-18
0.28125 	-0.96875 	0.5 	35.1368 	7.32033 	-2.71095e-19
0.296875 	-0.96875 	0.5 	35.1479 	7.26033 	-1.20015e-19
0.3125 	-0.96875 	0.5 	35.1494 	7.2119 	-6.66528e-20
0.328125 	-0.96875 	0.5 	35.1548 	7.14303 	2.54558e-19
0.34375 	-0.96875 	0.5 	35.1824 	7.08956 	1.48258e-19
0.359375 	-0.96875 	0.5 	35.1938 	7.03246 	4.25101e-20
0.375 	-0.96875 	0.5 	35.2101 	6.97787 	2.74666e-19
0.390625 	-0.96875 	0.5 	35.2202 	6.92234 	4.92339e-19
0.40625 	-0.96875 	0.5 	35.2394 	6.86454 	2.89527e-20
0.421875 	-0.96875 	0.5 	35.2579 	6.80862 	3.21641e-20
0.4375 	-0.96875 	0.5 	35.2763 	6.75522 	5.84233e-20
0.453125 	-0.96875 	0.5 	35.2961 	6.70225 	-7.28859e-20
0.46875 	-0.96875 	0.5 	35.3152 	6.64838 	-5.20241e-19
0.484375 	-0.96875 	0.5 	35.3361 	6.5953 	-1.30822e-19
0.5 	-0.96875 	0.5 	35.3671 	6.54503 	2.96861e-19
0.515625 	-0.96875 	0.5 	35.3964 	6.49453 	7.09575e-20
0.53125 	-0.96875 	0.5 	35.4266 	6.4458 	2.96611e-19
0.546875 	-0.96875 	0.5 	35.4518 	6.39663 	3.96862e-21
0.5625 	-0.96875 	0.5 	35.4824 	6.35129 	-5.08847e-20
0.578125 	-0.96875 	0.5 	35.5114 	6.30748 	-9.64845e-20
0.59375 	-0.96875 	0.5 	35.5459 	6.25868 	-1.66449e-19
0.609375 	-0.96875 	0.5 	35.5819 	6.21482 	1.09553e-18
0.625 	-0.96875 	0.5 	35.6113 	6.16962 	7.63991e-19
0.640625 	-0.96875 	0.5 	35.6387 	6.13006 	-1.39668e-18
0.65625 	-0.96875 	0.5 	35.6752 	6.0907 	-1.92984e-19
0.671875 	-0.96875 	0.5 	35.7085 	6.05255 	1.18047e-18
0.6875 	-0.96875 	0.5 	35.7482 	6.02325 	-1.00531e-18
0.703125 	-0.96875 	0.5 	35.7857 	5.97388 	-2.50642e-19
0.71875 	-0.96875 	0.5 	35.8222 	5.9321 	-7.55683e-21
0.734375 	-0.96875 	0.5 	35.8615 	5.90093 	-7.07109e-20
0.75 	-0.96875 	0.5 	35.901 	5.85325 	2.19155e-21
0.765625 	-0.96875 	0.5 	35.9407 	5.8203 	-8.18537e-19
0.78125 	-0.96875 	0.5 	35.9833 	5.79446 	-1.04676e-19
0.796875 	-0.96875 	0.5 	36.0282 	5.76717 	-2.59314e-19
0.8125 	-0.96875 	0.5 	36.0677 	5.74454 	7.35975e-20
0.828125 	-0.96875 	0.5 	36.1112 	5.71316 	8.44118e-19
0.84375 	-0.96875 	0.5 	36.1551 	5.68849 	4.94031e-19
0.859375 	-0.96875 	0.5 	36.1967 	5.65806 	2.6318e-19
0.875 	-0.96875 	0.5 	36.2377 	5.63616 	1.2464e-19
0.890625 	-0.96875 	0.5 	36.2782 	5.61567 	-1.89585e-21
0.90625 	-0.96875 	0.5 	36.3179 	5.59893 	-7.33624e-20
0.921875 	-0.96875 	0.5 	36.3585 	5.57881 	-1.60452e-19
0.9375 	-0.96875 	0.5 	36.3982 	5.56277 	-7.56811e-19
0.953125 	-0.96875 	0.5 	36.4456 	5.53408 	-4.461e-19
0.96875 	-0.96875 	0.5 	36.4914 	5.51397 	-7.54621e-20
0.984375 	-0.96875 	0.5 	36.5319 	5.4971 	-8.54309e-20
1 	-0.96875 	0.5 	36.5709 	5.48356 	1.68541e-20
1.01562 	-0.96875 	0.5 	36.6156 	5.47103 	6.22233e-20
1.03125 	-0.96875 	0.5 	36.6596 	5.45727 	1.69614e-19
1.04688 	-0.96875 	0.5 	36.7021 	5.44487 	3.63979e-19
1.0625 	-0.96875 	0.5 	36.7393 	5.42556 	1.05446e-19
1.07812 	-0.96875 	0.5 	36.7872 	5.41981 	-3.44721e-19
1.09375 	-0.96875 	0.5 	36.8254 	5.4097 	-6.13034e-20
1.10938 	-0.96875 	0.5 	36.8637 	5.39904 	1.48346e-19
1.125 	-0.96875 	0.5 	36.9003 	5.38821 	5.23433e-19
1.14062 	-0.96875 	0.5 	36.9402 	5.38274 	4.82714e-19
1.15625 	-0.96875 	0.5 	36.9812 	5.37927 	2.68199e-19
1.17188 	-0.96875 	0.5 	37.0215 	5.37522 	1.94888e-19
1.1875 	-0.96875 	0.5 	37.0592 	5.37032 	3.62056e-20
1.20312 	-0.96875 	0.5 	37.0987 	5.36464 	4.99353e-20
1.21875 	-0.96875 	0.5 	37.1379 	5.35875 	3.63574e-20
1.23438 	-0.96875 	0.5 	37.1755 	5.35626 	-6.76448e-20
1.25 	-0.96875 	0.5 	37.2141 	5.35565 	-1.86717e-20
1.26562 	-0.96875 	0.5 	37.253 	5.35406 	3.06639e-20
1.28125 	-0.96875 	0.5 	37.2926 	5.35073 	7.59044e-20
1.29688 	-0.96875 	0.5 	37.33 	5.3538 	2.32427e-19
1.3125 	-0.96875 	0.5 	37.3655 	5.3553 	1.31751e-19
1.32812 	-0.96875 	0.5 	37.4032 	5.35538 	1.29869e-19
1.34375 	-0.96875 	0.5 	37.4376 	5.35832 	-3.48246e-19
1.35938 	-0.96875 	0.5 	37.4718 	5.36758 	2.12416e-19
1.375 	-0.96875 	0.5 	37.5056 	5.3738 	3.48834e-19
1.39062 	-0.96875 	0.5 	37.5382 	5.37684 	2.33431e-19
1.40625 	-0.96875 	0.5 	37.5744 	5.38274 	1.64262e-19
1.42188 	-0.96875 	0.5 	37.6049 	5.38251 	-2.03097e-20
1.4375 	-0.96875 	0.5 	37.638 	5.3838 	-1.15621e-19
1.45312 	-0.96875 	0.5 	37.6724 	5.39106 	2.17421e-19
1.46875 	-0.96875 	0.5 	37.7055 	5.39738 	-1.44489e-19
1.48438 	-0.96875 	0.5 	37.7356 	5.401 	-4.97641e-19
-0.5 	-0.953125 	0.5 	36.3728 	9.56695 	2.85046e-20
-0.484375 	-0.953125 	0.5 	36.3316 	9.55219 	1.1477e-19
-0.46875 	-0.953125 	0.5 	36.2909 	9.53221 	-4.433e-20
-0.453125 	-0.953125 	0.5 	36.2467 	9.51593 	-6.4354e-20
-0.4375 	-0.953125 	0.5 	36.2121 	9.48504 	-4.23456e-19
-0.421875 	-0.953125 	0.5 	36.1716 	9.46256 	-5.02805e-19
-0.40625 	-0.953125 	0.5 	36.1272 	9.44656 	-6.20605e-20
-0.390625 	-0.953125 	0.5 	36.0862 	9.42019 	-1.82204e-19
-0.375 	-0.953125 	0.5 	36.0403 	9.39073 	2.71192e-19
-0.359375 	-0.953125 	0.5 	35.9914 	9.36139 	5.66805e-19
-0.34375 	-0.953125 	0.5 	35.9567 	9.33582 	4.90887e-20
-0.328125 	-0.953125 	0.5 	35.9148 	9.30067 	3.89571e-20
-0.3125 	-0.953125 	0.5 	35.8783 	9.25314 	-3.24178e-21
-0.296875 	-0.953125 	0.5 	35.8309 	9.24378 	-1.49878e-21
-0.28125 	-0.953125 	0.5 	35.7871 	9.21202 	2.82543e-20
-0.265625 	-0.953125 	0.5 	35.7375 	9.18091 	-6.42305e-20
-0.25 	-0.953125 	0.5 	35.7014 	9.13921 	-3.04329e-19
-0.234375 	-0.953125 	0.5 	35.6664 	9.09649 	-4.28095e-19
-0.21875 	-0.953125 	0.5 	35.6391 	9.05775 	-1.48681e-19
-0.203125 	-0.953125 	0.5 	35.6048 	9.01899 	9.08439e-20
-0.1875 	-0.953125 	0.5 	35.5595 	8.98109 	5.60454e-19
-0.171875 	-0.953125 	0.5 	35.5268 	8.93549 	8.30148e-19
-0.15625 	-0.953125 	0.5 	35.4914 	8.89737 	3.42398e-19
-0.140625 	-0.953125 	0.5 	35.4538 	8.84742 	2.5449e-19
-0.125 	-0.953125 	0.5 	35.4273 	8.79626 	5.66594e-19
-0.109375 	-0.953125 	0.5 	35.4059 	8.74416 	2.21555e-18
-0.09375 	-0.953125 	0.5 	35.3752 	8.69884 	1.0708e-18
-0.078125 	-0.953125 	0.5 	35.3439 	8.65153 	-1.96762e-19
-0.0625 	-0.953125 	0.5 	35.312 	8.58949 	9.15211e-20
-0.046875 	-0.953125 	0.5 	35.2846 	8.53597 	-8.0364e-20
-0.03125 	-0.953125 	0.5 	35.2626 	8.49149 	-3.15314e-19
-0.015625 	-0.953125 	0.5 	35.2384 	8.44522 	-6.13747e-19
0 	-0.953125 	0.5 	35.2172 	8.38921 	-2.18018e-19
0.015625 	-0.953125 	0.5 	35.1923 	8.33323 	-4.90893e-21
0.03125 	-0.953125 	0.5 	35.1758 	8.28122 	1.52539e-19
0.046875 	-0.953125 	0.5 	35.1545 	8.22574 	1.19411e-18
0.0625 	-0.953125 	0.5 	35.1377 	8.16508 	2.28433e-19
0.078125 	-0.953125 	0.5 	35.1245 	8.10881 	-3.60787e-19
0.09375 	-0.953125 	0.5 	35.1058 	8.04651 	-3.62699e-20
0.109375 	-0.953125 	0.5 	35.093 	7.98843 	-1.43645e-19
0.125 	-0.953125 	0.5 	35.0793 	7.92996 	-3.747e-20
0.140625 	-0.953125 	0.5 	35.0718 	7.869 	4.26458e-20
0.15625 	-0.953125 	0.5 	35.0687 	7.80194 	1.93172e-19
0.171875 	-0.953125 	0.5 	35.0684 	7.743 	3.56001e-20
0.1875 	-0.953125 	0.5 	35.0678 	7.6785 	1.53578e-19
0.203125 	-0.953125 	0.5 	35.0677 	7.6219 	1.47576e-18
0.21875 	-0.953125 	0.5 	35.0608 	7.56671 	3.7301e-19
0.234375 	-0.953125 	0.5 	35.0603 	7.50486 	-8.81548e-19
0.25 	-0.953125 	0.5 	35.063 	7.43791 	-1.43031e-18
0.265625 	-0.953125 	0.5 	35.0628 	7.37749 	4.40811e-19
0.28125 	-0.953125 	0.5 	35.0772 	7.31029 	-5.23937e-19
0.296875 	-0.953125 	0.5 	35.0895 	7.24874 	-5.16769e-19
0.3125 	-0.953125 	0.5 	35.0961 	7.19432 	-1.51371e-19
0.328125 	-0.953125 	0.5 	35.1082 	7.13444 	-3.70687e-19
0.34375 	-0.953125 	0.5 	35.1096 	7.07452 	-1.73871e-18
0.359375 	-0.953125 	0.5 	35.1271 	7.01921 	-7.11941e-19
0.375 	-0.953125 	0.5 	35.1431 	6.9693 	7.2616e-19
0.390625 	-0.953125 	0.5 	35.1619 	6.90885 	-1.08411e-19
0.40625 	-0.953125 	0.5 	35.1792 	6.84982 	-1.25238e-20
0.421875 	-0.953125 	0.5 	35.1966 	6.79225 	-3.3049e-21
0.4375 	-0.953125 	0.5 	35.2171 	6.73189 	9.17607e-19
0.453125 	-0.953125 	0.5 	35.238 	6.67731 	-5.49258e-19
0.46875 	-0.953125 	0.5 	35.257 	6.62342 	-1.03784e-18
0.484375 	-0.953125 	0.5 	35.2838 	6.57875 	-5.03356e-19
0.5 	-0.953125 	0.5 	35.3125 	6.51809 	2.29198e-19
0.515625 	-0.953125 	0.5 	35.345 	6.47057 	8.13544e-19
0.53125 	-0.953125 	0.5 	35.3725 	6.4194 	1.54311e-19
0.546875 	-0.953125 	0.5 	35.401 	6.37137 	-1.11605e-19
0.5625 	-0.953125 	0.5 	35.4286 	6.32522 	2.33829e-20
0.578125 	-0.953125 	0.5 	35.4591 	6.27681 	-1.65308e-20
0.59375 	-0.953125 	0.5 	35.5022 	6.22297 	-1.96922e-20
0.609375 	-0.953125 	0.5 	35.5324 	6.1814 	-1.09159e-19
0.625 	-0.953125 	0.5 	35.5638 	6.1366 	3.14259e-20
0.640625 	-0.953125 	0.5 	35.5948 	6.09918 	-1.29387e-18
0.65625 	-0.953125 	0.5 	35.6306 	6.06019 	-4.6791e-19
0.671875 	-0.953125 	0.5 	35.6656 	6.02025 	-2.02286e-19
0.6875 	-0.953125 	0.5 	35.7054 	5.97895 	3.55913e-19
0.703125 	-0.953125 	0.5 	35.7447 	5.93132 	1.82151e-21
0.71875 	-0.953125 	0.5 	35.7865 	5.89827 	2.10763e-19
0.734375 	-0.953125 	0.5 	35.8246 	5.85918 	1.92207e-19
0.75 	-0.953125 	0.5 	35.8689 	5.82089 	3.1519e-19
0.765625 	-0.953125 	0.5 	35.9043 	5.77899 	-6.01798e-19
0.78125 	-0.953125 	0.5 	35.9469 	5.75247 	-8.61313e-19
0.796875 	-0.953125 	0.5 	35.9895 	5.72673 	-1.13657e-20
0.8125 	-0.953125 	0.5 	36.0325 	5.7008 	-1.01319e-19
0.828125 	-0.953125 	0.5 	36.0787 	5.67351 	1.05466e-18
0.84375 	-0.953125 	0.5 	36.1224 	5.64681 	1.15592e-18
0.859375 	-0.953125 	0.5 	36.1647 	5.62197 	3.70426e-20
0.875 	-0.953125 	0.5 	36.208 	5.59731 	1.06204e-19
0.890625 	-0.953125 	0.5 	36.2485 	5.57683 	-1.83744e-20
0.90625 	-0.953125 	0.5 	36.2942 	5.55422 	-5.37289e-20
0.921875 	-0.953125 	0.5 	36.3377 	5.53554 	8.98175e-20
0.9375 	-0.953125 	0.5 	36.3788 	5.51688 	-3.84805e-19
0.953125 	-0.953125 	0.5 	36.4261 	5.48832 	-8.38981e-20
0.96875 	-0.953125 	0.5 	36.4688 	5.47537 	1.494e-20
0.984375 	-0.953125 	0.5 	36.5138 	5.45857 	-1.11111e-19
1 	-0.953125 	0.5 	36.5522 	5.44377 	-3.37878e-20
1.01562 	-0.953125 	0.5 	36.5929 	5.42537 	1.22094e-21
1.03125 	-0.953125 	0.5 	36.6346 	5.40662 	4.42131e-20
1.04688 	-0.953125 	0.5 	36.6862 	5.40049 	1.49566e-19
1.0625 	-0.953125 	0.5 	36.7257 	5.38414 	3.85156e-20
1.07812 	-0.953125 	0.5 	36.7712 	5.37869 	-1.07768e-19
1.09375 	-0.953125 	0.5 	36.8107 	5.36934 	1.04566e-19
1.10938 	-0.953125 	0.5 	36.8519 	5.36013 	2.15227e-19
1.125 	-0.953125 	0.5 	36.8919 	5.35343 	1.01393e-21
1.14062 	-0.953125 	0.5 	36.9314 	5.34715 	-1.947e-19
1.15625 	-0.953125 	0.5 	36.9723 	5.34037 	6.73852e-20
1.17188 	-0.953125 	0.5 	37.016 	5.33535 	5.72316e-20
1.1875 	-0.953125 	0.5 	37.0573 	5.33088 	3.20975e-19
1.20312 	-0.953125 	0.5 	37.0958 	5.32471 	2.3237e-19
1.21875 	-0.953125 	0.5 	37.1331 	5.31935 	-1.33522e-20
1.23438 	-0.953125 	0.5 	37.1714 	5.31637 	-4.07541e-20
1.25 	-0.953125 	0.5 	37.2091 	5.31796 	-1.70836e-20
1.26562 	-0.953125 	0.5 	37.2476 	5.3181 	2.84266e-20
1.28125 	-0.953125 	0.5 	37.2866 	5.31536 	8.73114e-20
1.29688 	-0.953125 	0.5 	37.3255 	5.31782 	-5.3142e-20
1.3125 	-0.953125 	0.5 	37.3645 	5.31842 	1.82659e-19
1.32812 	-0.953125 	0.5 	37.4057 	5.31471 	4.00529e-19
1.34375 	-0.953125 	0.5 	37.437 	5.32358 	2.0096e-20
1.35938 	-0.953125 	0.5 	37.4699 	5.32735 	-6.7907e-19
1.375 	-0.953125 	0.5 	37.5052 	5.33592 	6.05999e-19
1.39062 	-0.953125 	0.5 	37.537 	5.34348 	2.20323e-19
1.40625 	-0.953125 	0.5 	37.5745 	5.35158 	2.19036e-19
1.42188 	-0.953125 	0.5 	37.6053 	5.34529 	-3.9312e-19
1.4375 	-0.953125 	0.5 	37.6423 	5.34949 	-5.00489e-19
1.45312 	-0.953125 	0.5 	37.6712 	5.3558 	6.1039e-19
1.46875 	-0.953125 	0.5 	37.7061 	5.36365 	6.83103e-19
1.48438 	-0.953125 	0.5 	37.7416 	5.37236 	3.70723e-19
-0.5 	-0.9375 	0.5 	36.3494 	9.6114 	4.35375e-20
-0.484375 	-0.9375 	0.5 	36.3062 	9.59059 	1.38107e-19
-0.46875 	-0.9375 	0.5 	36.2648 	9.56896 	2.78821e-20
-0.453125 	-0.9375 	0.5 	36.2223 	9.5528 	-1.0024e-19
-0.4375 	-0.9375 	0.5 	36.1872 	9.52234 	-5.72036e-19
-0.421875 	-0.9375 	0.5 	36.1438 	9.50442 	-2.64597e-19
-0.40625 	-0.9375 	0.5 	36.099 	9.48704 	2.59924e-20
-0.390625 	-0.9375 	0.5 	36.0524 	9.46218 	5.9566e-20
-0.375 	-0.9375 	0.5 	36.0032 	9.43443 	3.36035e-19
-0.359375 	-0.9375 	0.5 	35.9547 	9.40496 	5.62899e-19
-0.34375 	-0.9375 	0.5 	35.9201 	9.3795 	4.8959e-20
-0.328125 	-0.9375 	0.5 	35.8811 	9.34711 	5.65507e-21
-0.3125 	-0.9375 	0.5 	35.8384 	9.31246 	3.56803e-21
-0.296875 	-0.9375 	0.5 	35.7807 	9.28611 	6.96686e-21
-0.28125 	-0.9375 	0.5 	35.7472 	9.24969 	5.72383e-20
-0.265625 	-0.9375 	0.5 	35.6907 	9.22261 	-1.4746e-20
-0.25 	-0.9375 	0.5 	35.6575 	9.17891 	-2.75493e-19
-0.234375 	-0.9375 	0.5 	35.6223 	9.14339 	-3.62528e-19
-0.21875 	-0.9375 	0.5 	35.5812 	9.09723 	-6.49811e-19
-0.203125 	-0.9375 	0.5 	35.545 	9.06368 	-4.81529e-20
-0.1875 	-0.9375 	0.5 	35.5114 	9.02464 	1.90301e-19
-0.171875 	-0.9375 	0.5 	35.4742 	8.98122 	1.02403e-19
-0.15625 	-0.9375 	0.5 	35.4362 	8.92485 	-7.50614e-19
-0.140625 	-0.9375 	0.5 	35.399 	8.88108 	2.08034e-19
-0.125 	-0.9375 	0.5 	35.375 	8.83332 	-5.75375e-19
-0.109375 	-0.9375 	0.5 	35.3456 	8.77802 	5.38221e-19
-0.09375 	-0.9375 	0.5 	35.3167 	8.73051 	-7.39798e-20
-0.078125 	-0.9375 	0.5 	35.2869 	8.67939 	-7.91953e-19
-0.0625 	-0.9375 	0.5 	35.2589 	8.62336 	-4.65587e-20
-0.046875 	-0.9375 	0.5 	35.2331 	8.57255 	-2.37398e-19
-0.03125 	-0.9375 	0.5 	35.1982 	8.52182 	-1.71153e-19
-0.015625 	-0.9375 	0.5 	35.1755 	8.46885 	-6.09938e-19
0 	-0.9375 	0.5 	35.1549 	8.41124 	-7.39967e-19
0.015625 	-0.9375 	0.5 	35.1391 	8.35583 	1.46962e-19
0.03125 	-0.9375 	0.5 	35.119 	8.3021 	3.28467e-19
0.046875 	-0.9375 	0.5 	35.0986 	8.24349 	5.73279e-19
0.0625 	-0.9375 	0.5 	35.0796 	8.18255 	1.17087e-19
0.078125 	-0.9375 	0.5 	35.0589 	8.12085 	-1.77634e-19
0.09375 	-0.9375 	0.5 	35.0445 	8.05483 	-5.35959e-20
0.109375 	-0.9375 	0.5 	35.0278 	7.99861 	-1.67982e-19
0.125 	-0.9375 	0.5 	35.014 	7.93967 	2.05725e-19
0.140625 	-0.9375 	0.5 	35.009 	7.87565 	2.74859e-19
0.15625 	-0.9375 	0.5 	35.0055 	7.81033 	1.69811e-19
0.171875 	-0.9375 	0.5 	35.0055 	7.7446 	3.98837e-19
0.1875 	-0.9375 	0.5 	35.0051 	7.68017 	4.76082e-19
0.203125 	-0.9375 	0.5 	34.9996 	7.6218 	3.58341e-19
0.21875 	-0.9375 	0.5 	34.9883 	7.56485 	-5.48693e-20
0.234375 	-0.9375 	0.5 	34.9833 	7.48811 	1.50984e-18
0.25 	-0.9375 	0.5 	34.9884 	7.42779 	9.35184e-19
0.265625 	-0.9375 	0.5 	34.9974 	7.37398 	-2.45622e-19
0.28125 	-0.9375 	0.5 	35.0072 	7.30208 	7.70996e-19