# p  FACE_DATA 413
#  x  y  z  p
0.0766975 0.00306903 0.5 560.767
0.0223365 -0.00454301 0.5 773.195
0.150663 0.0145982 0.5 482.73
0.0668366 0.00152375 0.5 592.786
0.0865518 0.00465549 0.5 549.854
0.11613 0.0093156 0.5 503.547
0.00484244 0.00934632 0.5 -1966.74
0.0569703 1.36255e-05 0.5 609.88
0.170412 0.0175089 0.5 510.31
0.0371968 -0.00272281 0.5 685.366
0.249547 0.028147 0.5 448.356
0.04709 -0.00140136 0.5 644.63
0.02729 -0.00393783 0.5 751.906
0.180291 0.0189353 0.5 490.296
0.175351 0.0182249 0.5 401.801
0.0914786 0.00545113 0.5 539.106
0.0124186 -0.0049488 0.5 862.896
0.190173 0.0203362 0.5 474.527
0.229737 0.0256987 0.5 467.956
0.140793 0.0131134 0.5 491.146
0.0173781 -0.00505952 0.5 828.945
0.1112 0.00854767 0.5 527.256
0.00781638 0.0133524 0.5 -1903.04
0.0619047 0.00076053 0.5 606.291
0.0717674 0.00229425 0.5 581.245
0.00213636 0.00516212 0.5 -2512.29
0.0322457 -0.00334909 0.5 727.849
0.121062 0.0100816 0.5 519.659
0.130927 0.0116052 0.5 518.745
0.20006 0.0217077 0.5 469.631
0.21984 0.0243952 0.5 456.592
0.00748188 -0.00424075 0.5 851.623
0.13586 0.0123617 0.5 509.886
0.0421447 -0.00207209 0.5 677.268
0.239638 0.026954 0.5 460.086
0.101338 0.00700867 0.5 533.192
0.209948 0.0230598 0.5 469.759
0.165474 0.0167876 0.5 484.501
0.160536 0.0160618 0.5 494.335
0.1556 0.0153318 0.5 496.834
0.000742066 0.00065955 0.5 -2797.55
0.244592 0.0275585 0.5 471.873
0.185231 0.0196392 0.5 476.488
0.0816256 0.00385645 0.5 569.946
0.234687 0.0263334 0.5 460.782
0.0520323 -0.000707925 0.5 640.965
0.106269 0.00777843 0.5 537.811
0.0964072 0.00623504 0.5 556.561
0.145727 0.0138591 0.5 489.167
0.214894 0.0237305 0.5 465.96
0.205004 0.022385 0.5 463.864
0.195116 0.0210257 0.5 473.277
0.224788 0.025052 0.5 466.253
0.00281309 -0.00276389 0.5 407.981
0.125994 0.010845 0.5 519.579
0.105615 0.0799857 0.5 -2149.22
0.0108948 0.0172802 0.5 -1833.96
0.153434 0.0941649 0.5 -2096.46
0.197795 0.101052 0.5 -1764.28
0.187883 0.0998814 0.5 -1828.66
0.124558 0.0862787 0.5 -2047.63
0.115062 0.0832067 0.5 -2067.93
0.0286184 0.0347384 0.5 -1860.74
0.0565649 0.0556588 0.5 -2423.38
0.0523942 0.0529189 0.5 -2086.55
0.0174006 0.0248358 0.5 -2013.03
0.0442609 0.0471362 0.5 -1892.78
0.0363607 0.0410372 0.5 -1870.44
0.0694143 0.0633372 0.5 -2099.87
0.0482923 0.0500773 0.5 -1893.04
0.0781782 0.0681137 0.5 -2136.68
0.14857 0.0930478 0.5 -2020
0.13891 0.0905393 0.5 -2053.23
0.0210296 0.0282561 0.5 -2033.19
0.0650813 0.0608617 0.5 -2117.16
0.119803 0.0847625 0.5 -2068.93
0.129327 0.0877511 0.5 -2129.42
0.060796 0.0583045 0.5 -1773.72
0.173057 0.0978122 0.5 -1809.78
0.0916017 0.0747241 0.5 -2292.63
0.0962311 0.0765854 0.5 -2193.69
0.168131 0.0970094 0.5 -1910.48
0.0324716 0.0379099 0.5 -1858.5
0.0737876 0.0657413 0.5 -2093.79
0.182934 0.0992408 0.5 -1805.37
0.10091 0.0783198 0.5 -2065.18
0.0825838 0.0704577 0.5 -2248.14
0.158317 0.0951924 0.5 -2091.91
0.0140455 0.0211495 0.5 -1879.7
0.192838 0.100482 0.5 -1784.66
0.110332 0.081614 0.5 -2104.49
0.0402881 0.0441161 0.5 -1855.96
0.13411 0.089174 0.5 -1995.53
0.143729 0.0918359 0.5 -2016.31
0.163217 0.0961385 0.5 -1963.22
0.0870486 0.0726846 0.5 -2207.99
0.177991 0.0985536 0.5 -1914.43
0.0248011 0.0315239 0.5 -1870.8
0.610278 0.075566 0.5 -525.86
0.252568 0.104492 0.5 -1413.12
0.382236 0.101348 0.5 -982.101
0.372271 0.101908 0.5 -1005.52
0.332388 0.10372 0.5 -1328.74
0.728444 0.0560247 0.5 -398.477
0.441938 0.09668 0.5 -865.399
0.451872 0.0957131 0.5 -821.025
0.217674 0.102854 0.5 -1655.95
0.352332 0.102889 0.5 -1058.97
0.402155 0.100042 0.5 -941.665
0.555941 0.08339 0.5 -615.492
0.703866 0.0603344 0.5 -384.809
0.541103 0.0853891 0.5 -633.44
0.392198 0.100731 0.5 -958.429
0.649722 0.0693942 0.5 -469.649
0.362302 0.102419 0.5 -1031.39
0.777535 0.0470441 0.5 -296.334
0.3274 0.103908 0.5 -1028.47
0.232621 0.103708 0.5 -1545.48
0.526256 0.0873133 0.5 -671.191
0.630008 0.0725326 0.5 -501.904
0.257556 0.104672 0.5 -1450.67
0.659574 0.0677901 0.5 -449.483
0.287493 0.105069 0.5 -1320.64
0.600406 0.0770393 0.5 -545.25
0.580652 0.0799177 0.5 -571.698
0.679266 0.0645204 0.5 -426.851
0.72353 0.0568973 0.5 -363.125
0.718616 0.0577648 0.5 -366.419
0.74318 0.0533772 0.5 -330.101
0.733356 0.055147 0.5 -310.169
0.461802 0.0947038 0.5 -790.644
0.506442 0.089745 0.5 -696.474
0.550997 0.0840641 0.5 -619.61
0.267532 0.104986 0.5 -1396.23
0.312437 0.104424 0.5 -1193.73
0.752999 0.0515888 0.5 -318.592
0.242594 0.104129 0.5 -1488.84
0.427028 0.0980422 0.5 -886.917
0.57077 0.0813255 0.5 -583.438
0.34236 0.103322 0.5 -1075.4
0.407132 0.0996718 0.5 -929.313
0.560885 0.0827085 0.5 -593.844
0.698947 0.0611799 0.5 -392.446
0.531207 0.0866809 0.5 -669.213
0.772629 0.0479608 0.5 -292.019
0.397178 0.100396 0.5 -958.618
0.689108 0.0628582 0.5 -402.716
0.357318 0.102659 0.5 -1063.63
0.78244 0.0461236 0.5 -281.862
0.347347 0.10311 0.5 -1025.64
0.227638 0.103459 0.5 -1567.7
0.708784 0.0594835 0.5 -369.252
0.466766 0.0941848 0.5 -797.446
0.436968 0.0971464 0.5 -848.472
0.297471 0.104866 0.5 -1244.94
0.47669 0.09312 0.5 -759.803
0.496528 0.0908989 0.5 -719.502
0.7137 0.0586268 0.5 -356.129
0.277512 0.105128 0.5 -1360.53
0.422056 0.0984707 0.5 -849.951
0.212697 0.102485 0.5 -1683.79
0.536156 0.0860394 0.5 -641.436
0.625077 0.0733013 0.5 -497.104
0.516351 0.0885494 0.5 -682.588
0.322412 0.104088 0.5 -1138.97
0.634938 0.0717573 0.5 -487.059
0.762815 0.0497829 0.5 -305.437
0.620144 0.0740632 0.5 -489.41
0.207725 0.102064 0.5 -1640.65
0.30246 0.104729 0.5 -1195.04
0.486611 0.0920234 0.5 -735.534
0.639867 0.0709756 0.5 -468.306
0.59053 0.0784882 0.5 -535.649
0.669422 0.0661649 0.5 -415.495
0.417082 0.0988855 0.5 -886.194
0.262544 0.104844 0.5 -1422.18
0.595468 0.0777661 0.5 -527.523
0.674344 0.0653449 0.5 -423.966
0.585592 0.0792055 0.5 -561.944
0.664498 0.06698 0.5 -437.885
0.202757 0.101585 0.5 -1723.34
0.377254 0.101635 0.5 -998.536
0.222655 0.103177 0.5 -1613.66
0.644795 0.0701878 0.5 -451.055
0.74809 0.0524852 0.5 -327.858
0.247582 0.104314 0.5 -1413.3
0.237607 0.103929 0.5 -1502.32
0.615212 0.0748183 0.5 -512.542
0.446905 0.0962021 0.5 -816.647
0.521305 0.0879363 0.5 -661.01
0.412108 0.0992861 0.5 -921.389
0.694028 0.0620209 0.5 -398.412
0.684187 0.0636913 0.5 -409.391
0.511397 0.0891524 0.5 -696.632
0.738268 0.0542645 0.5 -335.447
0.282502 0.105121 0.5 -1323.74
0.546051 0.0847306 0.5 -637.282
0.317425 0.10426 0.5 -1170.13
0.565828 0.0820203 0.5 -593.43
0.272522 0.105084 0.5 -1383.99
0.456838 0.0952135 0.5 -807.339
0.605342 0.0763064 0.5 -533.894
0.654648 0.0685949 0.5 -457.601
0.767722 0.0488739 0.5 -299.847
0.757908 0.0506879 0.5 -312.398
0.49157 0.0914643 0.5 -728.48
0.48165 0.0925754 0.5 -749.078
0.307449 0.104581 0.5 -1209.88
0.387217 0.101047 0.5 -975.232
0.367287 0.102169 0.5 -1021.46
0.575712 0.0806245 0.5 -572.65
0.501485 0.0903266 0.5 -711.87
0.471728 0.0936566 0.5 -766.22
0.337374 0.103525 0.5 -976.307
0.431999 0.0976006 0.5 -864.167
0.292482 0.104982 0.5 -1253.03
0.38389 0.0379693 0.5 415.212
0.498657 0.0386225 0.5 368.502
0.468716 0.0390124 0.5 372.399
0.309143 0.0339155 0.5 432.211
0.334047 0.0354783 0.5 434.406
0.373917 0.0375586 0.5 414.207
0.27929 0.0316054 0.5 458.709
0.433782 0.0390498 0.5 441.315
0.493667 0.0387052 0.5 376.349
0.319104 0.0345613 0.5 440.129
0.348995 0.0363274 0.5 426.07
0.438772 0.0390782 0.5 312.778
0.473707 0.0389668 0.5 378.24
0.358962 0.0368504 0.5 421.881
0.368931 0.0373338 0.5 429.809
0.423801 0.0389543 0.5 395.769
0.304163 0.0335826 0.5 457.563
0.324084 0.034874 0.5 426.589
0.388877 0.0381526 0.5 421.614
0.254503 0.0287362 0.5 441.553
0.339029 0.0357693 0.5 425.392
0.284258 0.0320701 0.5 445.214
0.274326 0.031095 0.5 465.369
0.483687 0.0388509 0.5 380.285
0.294207 0.0328816 0.5 459.403
0.463726 0.0390488 0.5 397.068
0.408832 0.0387073 0.5 417.952
0.503647 0.0385317 0.5 371.531
0.259458 0.0293404 0.5 464.003
0.453744 0.0390928 0.5 390.835
0.448754 0.0390992 0.5 410.983
0.418811 0.0388864 0.5 418.106
0.264411 0.0299484 0.5 476.584
0.378903 0.0377709 0.5 419.2
0.353978 0.0365936 0.5 423.154
0.398854 0.0384665 0.5 421.689
0.363946 0.0370974 0.5 438.201
0.488677 0.0387815 0.5 387.511
0.428791 0.0390086 0.5 418.243
0.314123 0.0342418 0.5 450.086
0.478697 0.0389129 0.5 391.053
0.443764 0.0390945 0.5 461.75
0.269367 0.0305394 0.5 464.29
0.289231 0.0324934 0.5 466.516
0.393865 0.0383191 0.5 427.582
0.299184 0.0332411 0.5 460.868
0.329066 0.0351797 0.5 443.347
0.403842 0.0385951 0.5 425.575
0.458735 0.0390759 0.5 396.742
0.413821 0.0388042 0.5 416.167
0.344011 0.0360524 0.5 445.038
0.956284 0.00364163 0.5 96.5905
0.693033 0.0291121 0.5 267.923
0.722891 0.026849 0.5 251.398
0.633282 0.0331504 0.5 288.173
0.807412 0.0195008 0.5 200.183
0.60837 0.0345681 0.5 313.802
0.916624 0.00821855 0.5 90.348
0.553531 0.0370722 0.5 340.113
0.862031 0.0139988 0.5 139.211
0.578462 0.0360276 0.5 330.745
0.757707 0.0239819 0.5 121.293
0.777593 0.0222419 0.5 220.727
0.583447 0.0357989 0.5 272.593
0.802443 0.0199707 0.5 211.554
0.663164 0.0312239 0.5 280.468
0.752735 0.0244058 0.5 290.833
0.573476 0.0362502 0.5 337.065
0.71294 0.0276236 0.5 185.719
0.832245 0.0170595 0.5 164.782
0.523603 0.0380634 0.5 348.399
0.966187 0.00238889 0.5 48.2053
0.707963 0.0280031 0.5 260.766
0.886848 0.011389 0.5 163.362
0.990945 -0.000722707 0.5 -163.537
0.702987 0.0283773 0.5 307.933
0.961236 0.00302151 0.5 -134.666
0.837211 0.0165573 0.5 170.54
0.528592 0.0379209 0.5 353.606
0.618336 0.0340242 0.5 309.872
0.926543 0.00711566 0.5 92.7321
0.688055 0.0294742 0.5 301.857
0.658185 0.0315595 0.5 312.636
0.648225 0.0322142 0.5 308.121
0.638264 0.0328449 0.5 303.201
0.772622 0.0226835 0.5 239.249
0.782564 0.0217962 0.5 225.875
0.792505 0.020892 0.5 221.92
0.727866 0.026454 0.5 242.695
0.548544 0.0372589 0.5 363.719
0.668143 0.030883 0.5 275.382
0.931502 0.00655037 0.5 81.278
0.593417 0.0353243 0.5 358.825
0.81238 0.0190237 0.5 201.908
0.901736 0.0098163 0.5 143.927
0.717915 0.0272388 0.5 332.114
0.623319 0.0337404 0.5 347.405
0.69801 0.0287466 0.5 280.419
0.822313 0.0180515 0.5 204.833
0.628301 0.033449 0.5 331.723
0.857068 0.0145157 0.5 174.568
0.513626 0.0383187 0.5 375.84
0.941416 0.00539998 0.5 77.953
0.518614 0.0381961 0.5 397.518
0.971137 0.00175057 0.5 16.2913
0.827279 0.0175577 0.5 232.958
0.737815 0.0256492 0.5 253.074
0.896774 0.0103404 0.5 132.521
0.767651 0.0231208 0.5 238.426
0.742788 0.0252395 0.5 264.32
0.762679 0.0235536 0.5 307.305
0.588433 0.0355643 0.5 362.87
0.866995 0.0134797 0.5 127.802
0.852104 0.0150303 0.5 188.463
0.538569 0.0376076 0.5 366.144
0.847139 0.0155423 0.5 184.453
0.95133 0.00424045 0.5 70.9963
0.683078 0.0298327 0.5 301.783
0.976086 0.00111249 0.5 12.5854
0.881884 0.0119131 0.5 154.959
0.6781 0.0301871 0.5 286.082
0.558518 0.0368776 0.5 329.009
0.876922 0.0124366 0.5 143.015
0.56849 0.0364662 0.5 349.265
0.603386 0.0348276 0.5 345.589
0.543556 0.0374376 0.5 370.272
0.911662 0.00875738 0.5 134.401
0.797474 0.0204339 0.5 226.445
0.985989 -0.00013544 0.5 -78.8414
0.747761 0.024825 0.5 268.741
0.787535 0.0213462 0.5 225.233
0.653205 0.0318897 0.5 302.825
0.613353 0.0343002 0.5 313.93
0.921584 0.00767168 0.5 93.5409
0.732841 0.0260541 0.5 262.085
0.643245 0.0325327 0.5 310.849
0.673121 0.0305373 0.5 296.049
0.598402 0.0350791 0.5 346.697
0.563504 0.0366755 0.5 356.817
0.871959 0.0129589 0.5 156.704
0.93646 0.00597738 0.5 81.2909
0.906699 0.00928953 0.5 134.79
0.891811 0.0108645 0.5 132.358
0.842175 0.0160514 0.5 190.895
0.946373 0.00482198 0.5 60.414
0.533581 0.0377688 0.5 369.599
0.508636 0.0384306 0.5 375.343
0.817346 0.0185404 0.5 207.461
0.981037 0.000481003 0.5 -56.0408
0.948784 0.0126602 0.5 -130.496
0.885269 0.0258863 0.5 -174.886
0.992729 0.00337765 0.5 -92.5703
0.978097 0.00654812 0.5 -99.8034
0.958551 0.0106053 0.5 -107.21
0.797151 0.0433418 0.5 -267.248
0.806955 0.041467 0.5 -255.388
0.995908 -0.00124761 0.5 -204.364
0.91461 0.0199109 0.5 -147.38
0.904833 0.0219171 0.5 -155.214
0.826549 0.0376496 0.5 -233.445
0.84613 0.0337673 0.5 -215.191
0.895051 0.0239033 0.5 -163.987
0.851024 0.0327892 0.5 -231.819
0.816754 0.0395682 0.5 -244.737
0.787344 0.0451997 0.5 -279.194
0.963438 0.00959168 0.5 -119.804
0.939024 0.0147502 0.5 -127.967
0.943904 0.0137034 0.5 -123.682
0.831445 0.0366841 0.5 -228.751
0.968325 0.00858054 0.5 -103.747
0.841235 0.0347427 0.5 -216.519
0.997581 0.00221116 0.5 -90.7265
0.865703 0.0298412 0.5 -191.93
0.821652 0.0386111 0.5 -240.025
1.00406 -0.000829344 0.5 -309.287
0.880378 0.0268769 0.5 -171.682
0.934144 0.0157965 0.5 -126.42
0.929263 0.0168382 0.5 -134.619
0.973212 0.00756751 0.5 -102.628
0.875486 0.0278664 0.5 -179.305
0.919496 0.018896 0.5 -146.612
0.836341 0.035715 0.5 -222.122
0.802053 0.0424073 0.5 -262.735
0.953666 0.0116266 0.5 -109.346
0.855917 0.0318087 0.5 -182.565
0.909723 0.0209175 0.5 -152.931
0.890161 0.024895 0.5 -169.625
0.987858 0.00446517 0.5 -94.1228
0.86081 0.0308259 0.5 -196.516
0.870594 0.0288545 0.5 -188.922
0.792248 0.0442724 0.5 -273.47
0.811855 0.0405203 0.5 -251.474
0.899942 0.0229114 0.5 -160.895
0.924381 0.0178718 0.5 -139.487
0.98298 0.00551678 0.5 -97.4912
1.00236 0.000815046 0.5 -86.4378
1.00089 -0.00158862 0.5 -229.795
